# vtk DataFile Version 2.0
Really cool data
ASCII
DATASET POLYDATA
POINTS 4893 float
0.0 0.0 0
100.0 0.0 0
100.0 10.0 0
50.25 10.0 0
50.25 1.0 0
49.75 1.0 0
49.75 10.0 0
0.0 10.0 0
0.5000000004713866 0.0 0
1.000000000927485 0.0 0
1.500000001363928 0.0 0
2.000000001715368 0.0 0
2.500000002054665 0.0 0
3.000000002393964 0.0 0
3.500000002774895 0.0 0
4.000000003277256 0.0 0
4.500000003692882 0.0 0
5.000000003976668 0.0 0
5.500000004274332 0.0 0
6.000000004780162 0.0 0
6.500000005285994 0.0 0
7.000000005791824 0.0 0
7.500000006297656 0.0 0
8.000000006803486 0.0 0
8.500000007309318 0.0 0
9.00000000754453 0.0 0
9.500000007717295 0.0 0
10.00000000820231 0.0 0
10.50000000919386 0.0 0
11.00000001005358 0.0 0
11.50000001089247 0.0 0
12.00000001160647 0.0 0
12.50000001222332 0.0 0
13.00000001261813 0.0 0
13.50000001320723 0.0 0
14.00000001448328 0.0 0
14.50000001538463 0.0 0
15.00000001655659 0.0 0
15.50000001749263 0.0 0
16.00000001844256 0.0 0
16.50000001885125 0.0 0
17.00000001942646 0.0 0
17.50000002026536 0.0 0
18.00000002147896 0.0 0
18.50000002276195 0.0 0
19.00000002303186 0.0 0
19.50000002330177 0.0 0
20.00000002411291 0.0 0
20.50000002470549 0.0 0
21.0000000253501 0.0 0
21.50000002582124 0.0 0
22.00000002645197 0.0 0
22.50000002704107 0.0 0
23.00000002832406 0.0 0
23.50000002920459 0.0 0
24.00000003004349 0.0 0
24.50000003088239 0.0 0
25.00000003206824 0.0 0
25.50000003379531 0.0 0
26.00000003552239 0.0 0
26.50000003724946 0.0 0
27.00000003755407 0.0 0
27.50000003846583 0.0 0
28.00000003923187 0.0 0
28.50000003918259 0.0 0
29.00000004102069 0.0 0
29.5000000416202 0.0 0
30.00000004290318 0.0 0
30.50000004300656 0.0 0
31.0000000420691 0.0 0
31.50000004118022 0.0 0
32.00000004132176 0.0 0
32.50000004149453 0.0 0
33.00000004170198 0.0 0
33.50000004287395 0.0 0
34.00000004384817 0.0 0
34.50000004249437 0.0 0
35.00000004244509 0.0 0
35.50000004239582 0.0 0
36.00000004245755 0.0 0
36.50000004329645 0.0 0
37.00000004513455 0.0 0
37.5000000477498 0.0 0
38.00000005036505 0.0 0
38.50000005220315 0.0 0
39.00000005304206 0.0 0
39.50000005353401 0.0 0
40.00000005333207 0.0 0
40.50000005421954 0.0 0
41.00000005567601 0.0 0
41.50000005740308 0.0 0
42.00000005913016 0.0 0
42.50000006085724 0.0 0
43.00000006258431 0.0 0
43.50000006431139 0.0 0
44.00000006408864 0.0 0
44.50000006464304 0.0 0
45.00000006637013 0.0 0
45.5000000680972 0.0 0
46.00000006982427 0.0 0
46.50000007155137 0.0 0
47.00000007327843 0.0 0
47.50000007472796 0.0 0
48.00000007472724 0.0 0
48.50000007551063 0.0 0
49.00000007675892 0.0 0
49.50000007837843 0.0 0
50.00000007921737 0.0 0
50.50000007611497 0.0 0
51.00000007266216 0.0 0
51.50000007051736 0.0 0
52.00000006870559 0.0 0
52.50000006549217 0.0 0
53.00000006532495 0.0 0
53.50000006340217 0.0 0
54.00000006157653 0.0 0
54.50000005975088 0.0 0
55.00000005792525 0.0 0
55.50000005615513 0.0 0
56.00000005402418 0.0 0
56.50000005272938 0.0 0
57.00000005175028 0.0 0
57.50000004992467 0.0 0
58.00000004809904 0.0 0
58.5000000455934 0.0 0
59.00000004519715 0.0 0
59.50000004296908 0.0 0
60.00000004114344 0.0 0
60.50000004036905 0.0 0
61.0000000388123 0.0 0
61.50000003797199 0.0 0
62.00000003731208 0.0 0
62.50000003570157 0.0 0
63.00000003389675 0.0 0
63.50000003122457 0.0 0
64.00000002933822 0.0 0
64.50000002551418 0.0 0
65.0000000194697 0.0 0
65.50000001766836 0.0 0
66.00000001634231 0.0 0
66.50000001490875 0.0 0
67.00000001295126 0.0 0
67.50000001159053 0.0 0
68.00000000965386 0.0 0
68.50000000539964 0.0 0
69.00000000128068 0.0 0
69.50000000200856 0.0 0
70.00000000029395 0.0 0
70.49999999907897 0.0 0
70.99999999758295 0.0 0
71.49999999571567 0.0 0
71.999999994433 0.0 0
72.49999999486944 0.0 0
72.99999999363362 0.0 0
73.49999999042018 0.0 0
73.99999998851476 0.0 0
74.49999998793812 0.0 0
74.99999998650452 0.0 0
75.49999998433195 0.0 0
75.99999998407449 0.0 0
76.49999998046903 0.0 0
76.99999997858791 0.0 0
77.49999997992639 0.0 0
77.99999997841302 0.0 0
78.49999997601142 0.0 0
78.99999997594827 0.0 0
79.49999997767536 0.0 0
79.99999997940243 0.0 0
80.49999997943296 0.0 0
80.99999997760733 0.0 0
81.4999999745049 0.0 0
81.99999997152742 0.0 0
82.49999997199166 0.0 0
82.99999997233094 0.0 0
83.49999997405803 0.0 0
83.99999997578509 0.0 0
84.49999997678707 0.0 0
84.99999997698411 0.0 0
85.49999997662951 0.0 0
85.99999997813454 0.0 0
86.49999997747813 0.0 0
86.99999997647127 0.0 0
87.49999997564485 0.0 0
87.9999999738192 0.0 0
88.49999997199359 0.0 0
88.99999997016793 0.0 0
89.49999997110397 0.0 0
89.99999997227594 0.0 0
90.49999997108868 0.0 0
90.99999997217738 0.0 0
91.499999974182 0.0 0
91.99999997525684 0.0 0
92.49999997841331 0.0 0
92.9999999807649 0.0 0
93.49999998216586 0.0 0
93.99999998337596 0.0 0
94.49999998384015 0.0 0
94.99999998456803 0.0 0
95.49999998665594 0.0 0
95.9999999888132 0.0 0
96.49999998808393 0.0 0
96.99999998926977 0.0 0
97.4999999914687 0.0 0
97.99999999325128 0.0 0
98.4999999933824 0.0 0
98.99999999655279 0.0 0
99.4999999981827 0.0 0
99.99999999999999 0.5000000006396631 0
100.0 1.000000001299887 0
100.0 1.500000002317897 0
100.0 2.000000003487696 0
100.0 2.500000004137077 0
100.0 3.000000005358917 0
100.0 3.500000006945049 0
100.0 4.000000007906681 0
99.99999999999999 4.500000010498953 0
100.0 5.000000011460584 0
100.0 5.500000009022157 0
99.99999999999999 6.000000007850081 0
100.0 6.500000006348403 0
100.0 7.000000002851798 0
99.99999999999999 7.499999998487827 0
100.0 7.99999999873822 0
100.0 8.499999997583487 0
100.0 8.999999998597158 0
100.0 9.499999999107754 0
99.50249999664918 10.0 0
99.00499999876271 10.0 0
98.50749999530431 10.0 0
98.01000000040158 10.0 0
97.51249999884101 10.0 0
97.01499999819632 10.0 0
96.51750000018497 10.0 0
96.01999999953335 9.999999999999998 0
95.52249999699089 10.0 0
95.02499999584315 9.999999999999998 0
94.52749999523319 10.0 0
94.0299999934887 9.999999999999998 0
93.5324999924381 9.999999999999998 0
93.03499998875768 10.0 0
92.53749998517786 10.0 0
92.03999998264233 10.0 0
91.5424999825597 10.0 0
91.04499997932336 10.0 0
90.54749997866136 10.0 0
90.04999998153818 10.0 0
89.55249997951961 10.0 0
89.05499997562407 10.0 0
88.55749997417101 10.0 0
88.05999996892585 10.0 0
87.56249996670954 10.0 0
87.0649999651871 10.0 0
86.56749996280423 10.0 0
86.06999995614703 10.0 0
85.57249995610951 10.0 0
85.0749999505278 10.0 0
84.57749995115991 10.0 0
84.0799999490754 10.0 0
83.58249994831624 9.999999999999998 0
83.08499994748769 10.0 0
82.58749994242991 10.0 0
82.08999994481754 10.0 0
81.59249994848538 10.0 0
81.09499994708784 10.0 0
80.597499943796 10.0 0
80.09999993969228 10.0 0
79.60249994018211 10.0 0
79.10499993698046 10.0 0
78.60749993380307 10.0 0
78.10999992986937 10.0 0
77.61249992909634 10.0 0
77.11499992722001 10.0 0
76.61749992855293 10.0 0
76.11999992753704 10.0 0
75.622499928183 10.0 0
75.12499992864855 10.0 0
74.62749992538446 10.0 0
74.12999992733147 10.0 0
73.63249992597903 10.0 0
73.13499993379288 10.0 0
72.63749993446315 10.0 0
72.13999993679872 10.0 0
71.64249993910654 9.999999999999996 0
71.14499993902395 10.0 0
70.64749994084953 10.0 0
70.14999993420616 10.0 0
69.65249993689218 10.0 0
69.15499993857205 9.999999999999998 0
68.65749993687265 10.0 0
68.15999993893418 10.0 0
67.66249993663806 10.0 0
67.1649999371383 10.0 0
66.66749993844344 10.0 0
66.1699999432059 10.0 0
65.67249994241897 10.0 0
65.17499994397048 10.0 0
64.67749994295106 9.999999999999998 0
64.17999994384685 10.0 0
63.68249994625879 10.0 0
63.18499994575982 10.0 0
62.68749994432067 10.0 0
62.18999994695464 9.999999999999998 0
61.6924999500223 10.0 0
61.19499995449505 9.999999999999998 0
60.69749995735798 10.0 0
60.19999996026607 10.0 0
59.70249996208818 10.0 0
59.20499996359457 10.0 0
58.70749996309563 10.0 0
58.2099999659447 9.999999999999998 0
57.71249996743375 10.0 0
57.21499996891936 10.0 0
56.71749997135385 10.0 0
56.21999997508937 10.0 0
55.72249997649861 10.0 0
55.22499998164448 10.0 0
54.7274999841882 10.0 0
54.22999998632081 10.0 0
53.73249998912996 9.999999999999998 0
53.23499999151503 9.999999999999998 0
52.73749999652731 10.0 0
52.23999999229871 10.0 0
51.74249998848641 10.0 0
51.2449999934588 10.0 0
50.7474999992378 10.0 0
50.25 9.499999998174925 0
50.24999999999999 8.999999997034102 0
50.24999999999999 8.49999999414892 0
50.25000000000001 7.999999992102187 0
50.24999999999999 7.499999990701157 0
50.25 6.999999989425413 0
50.25 6.499999988178581 0
50.25 5.999999988676106 0
50.24999999999999 5.499999987997881 0
50.25 4.99999999023977 0
50.25 4.499999992751506 0
50.24999999999999 3.999999992959913 0
50.25 3.499999993900761 0
50.24999999999999 2.999999995058447 0
50.25000000000001 2.499999996461888 0
50.25 1.999999998602581 0
50.25 1.500000000430065 0
49.9999999777305 1.0 0
49.75 1.500000001019151 0
49.75 2.000000002163587 0
49.75 2.500000003042996 0
49.75000000000001 3.000000003806757 0
49.75000000000001 3.500000005100572 0
49.75000000000001 4.000000006548584 0
49.75000000000001 4.500000008054421 0
49.74999999999999 5.000000009415697 0
49.74999999999999 5.500000009302457 0
49.75 6.000000008225484 0
49.75 6.500000005837832 0
49.75 7.000000004597022 0
49.74999999999999 7.500000000373452 0
49.75 7.99999999895917 0
49.75 8.499999999327798 0
49.75 8.99999999878088 0
49.75 9.499999999178417 0
49.25249999786197 10.0 0
48.7549999973858 10.0 0
48.25749999407857 10.0 0
47.75999999293629 10.0 0
47.26249999277931 10.0 0
46.76499999289642 10.0 0
46.26749999384968 10.0 0
45.76999999350534 9.999999999999998 0
45.27249999177671 10.0 0
44.77499999060667 10.0 0
44.27749999031091 10.0 0
43.77999998939067 10.0 0
43.28249998829694 10.0 0
42.78499998627341 10.0 0
42.28749998489519 10.0 0
41.78999998481454 10.0 0
41.29249998253426 10.0 0
40.79499998166953 9.999999999999998 0
40.2974999819844 9.999999999999998 0
39.79999998116129 10.0 0
39.30249998198269 10.0 0
38.80499997961915 10.0 0
38.30749997822706 9.999999999999998 0
37.80999997613414 10.0 0
37.31249997439162 9.999999999999998 0
36.81499997273237 10.0 0
36.31749997263785 10.0 0
35.81999997124576 10.0 0
35.32249997026999 10.0 0
[...]
CELL_DATA 4653
SCALARS flow double 1
LOOKUP_TABLE default
5.957117297258157 0.012541760652192776 0.3248216985569186 0.013659992917236926 0.05050696517149216 0.05353885081415201 2.8736550518208936 0.1682621899066977 0.16813368744627075 24.9841392286336 0.006902413415794869 1.7650879454817303 34.68518766448867 1.3319967566872657 0.05680248040716568 0.06414671468733008 0.7594215225253559 2.667751047652215 0.03154852053488335 0.06003809808553874 0.007661295040261837 0.03397330279814133 0.07875235471963546 1.7065437252439513 0.019675254508297463 0.006616369007709799 0.8373951264211476 3.4274257468548233 0.02369262413110842 0.06429821133974101 7.078446968188654 2.9060385680754703 0.42910983772307854 2.8861794291383847 0.02501601152008416 0.24541929903705326 2.3272824690336877 0.0022742251549655555 0.004640217597957671 0.06908179374464764 0.006569871042156488 0.007377744043654621 2.5861231362615325 0.020120540546363884 0.03402022174274134 1.8188380640089379 0.504528992488396 0.9511445150075327 0.2564248227309023 4.00403404321694 14.236406534928616 0.12867378235568258 0.1024777268877158 27.262797048003534 0.07085170646520958 0.004106714257460179 0.0052802079975749 0.07363534129022602 0.01746747804745723 0.006458483069143549 0.008140915409204101 0.0055244364908848785 7.900270228164292 0.027442879547832044 3.7752260395367268 0.0271813631569835 6.48382338981762 6.5158948991599 0.008914862495424 0.4452768041979219 0.2177221392406597 2.409460396086438 0.25023393419893275 1.08601118398629 0.01770369760609996 0.005411538577953983 0.006803478127270083 0.19458366008977032 0.006281165750719978 4.679533001508111 0.03951612471680275 0.07876139297340345 0.5547879052265826 0.0580050910851149 1.0795654607679968 0.005482207601722049 1.4815799427360923 9.03469259694396 0.033237676177573214 0.005925719011226556 4.305485311880798 4.307190792858633 0.006983567572430956 31.285028538866783 0.3115053870427941 0.008289165274552103 0.10045499312963121 2.1327917148163062 0.004936974202355901 0.0842503446355198 0.31994574601423553 34.44109155985728 0.010790431274107727 0.6429536695161084 1.5581102218442524 0.683009080354396 0.08206475828539089 1.2481952368036762 0.014017239455135968 0.02405375214898457 0.0008704582344455017 0.017103106053723664 0.004320820153797364 0.021922193255848526 0.00325693116713761 0.004033585524081599 1.554976346325992 3.4933907079647266 0.037020988609931874 0.04599624166944809 0.4627353472210003 0.07590720190794105 3.451088873498008 0.09024510340875974 0.02651015690009511 0.040635071805430155 0.006591779208460324 12.518068359445241 0.010752410214156119 0.002285409486022281 0.010607615109810025 0.06890152355769863 0.0014362434085308802 0.23709654158212928 0.042477344995844504 0.40247012750499156 0.007989082702445872 5.249473080179989 0.015502969451539159 0.0037072727565875437 0.09590416278252539 0.04483192374126088 2.126231825444059 2.0697791734101756 3.7777484489558253 0.020708262185949417 0.9865628624718225 0.614283355791346 0.08280563100421705 3.398397874163561 0.02084228579744623 0.0014122098033094214 0.4499921603023761 3.208945561076567 0.048672026852518764 0.02517838876303649 0.08778684106327479 0.070153776090361 0.007064120851296199 0.08555638778477201 28.999590347116268 4.167295871210784 0.011350427714399107 0.21645576581045536 0.007670821617324822 8.677925689098638 30.455394743415557 0.1026800692435216 0.33933498787296656 0.09066108633288711 0.009563414479384564 0.018514373701865948 0.0027243989175365717 0.28737199549135967 0.044140525800828945 0.060141058145580996 0.006279181555531342 1.6064394127715353 7.681022458902194 0.019153481277779816 0.306811458455386 0.006837992605629079 39.58141832517018 1.9978884598579818 0.009240117861784034 0.0076239444465415265 0.10918843871082742 0.043201772411840034 0.0019031316389540012 0.0063665148693055765 0.008918873870920309 0.018402443383444798 0.02037585360994203 2.108048549132721 0.9040682319294928 0.0030256083144146683 0.00899082278091732 0.008531305181515243 0.008980920146041198 0.00986262092262994 0.05618260449916557 4.8746888567893665 0.18727725587541194 0.009239113405999122 0.006726706088659759 0.008185344549192704 0.020481461783601537 0.02523362761769277 3.756498223136442 4.587592749733208 0.19666910797397943 0.006974147791522004 0.01029854188612762 0.15413244763482833 0.006440183413349268 0.5457352469669872 13.777577527500444 1.1565415091334401 4.13546642494583 0.006622679853016422 0.0051207919204855 0.009291391505310552 0.01233236652457034 0.00675763399830367 0.0015985152393218841 0.05122602276654551 0.013699047553620496 0.009982236165221155 0.11680824916449314 2.890495814176807 4.100641433768279 0.00999218507970266 0.18375177186854877 0.20961670778529073 0.15884080515385637 0.24298078890780866 0.04946439062481979 0.1392354616293212 0.007391689897379074 0.1227289518494569 0.27730156512179693 1.0222485532299586 0.1073533677477271 1.9910745725606118 0.009915350738212371 0.09269202297772161 0.08136708812188362 25.66810691233145 0.31362150033919833 2.1464521005637187 0.07055066835437881 0.011638233008628575 2.003584295482503 0.008919854232178533 1.8865815476883139 0.0619141193856174 0.01856600661255442 0.053457902343952556 0.0207676925968217 0.023592002325826845 0.010207494304250525 0.046671572945890666 0.027095292699909807 0.031075402497873036 0.04091273493594491 0.03570402623994326 0.00862153771949375 1.1496659660360928 0.5415287927409232 0.05084218525183134 1.1757651149969344 0.5592711021889636 0.05299967368964875 0.35791155224328813 0.03128124816339902 3.459055080384446 0.18710330209336135 0.16402398914048752 0.21541855878057828 0.14236800086834747 0.011439270907343523 0.12547863564027223 0.13196548570617003 0.24593694950687697 0.1592021551984429 0.029824609802556957 0.10873528891322475 0.34957298601316905 1.8950255495991815 0.095307335804065 0.2837012518059936 0.4043181260796525 0.08273051401194852 0.025523016039978908 0.07248147206999377 0.2108204418133745 0.06289243323601906 0.05517195768823271 0.016051177776080294 0.018344833956035436 0.04786271427488973 0.020894754894490213 0.012483916173945295 0.7162727863629328 0.02416663497035348 0.042148404333997455 0.02761274407753693 0.010780626109380012 0.036435732827146156 0.031963422044934166 0.32244863354624503 0.14011888923875723 0.004698055939375604 0.13140268490265355 0.1284147180518389 1.602046341347748 0.022957102817395013 0.12318844318498082 0.02695005803778795 2.094920503053037 0.009381215466894584 0.10861821995240208 0.1016236135164551 0.3720643817482749 0.4633780929912748 0.12157109576697246 0.26664184417930564 1.1817296189020459 0.5644843800559703 0.053323850783639465 0.09487125395874026 18.74124082770813 2.108276896808376 1.9270795570153842 0.26634575976399294 0.14062931212833168 0.27610118479955725 0.02274954675191345 0.2357431640906529 0.1958207397755632 0.16718989841263138 4.3041103730765915 0.22363578876420653 0.14764317811595695 0.48318404652190966 0.04513405103268952 13.590501002648924 1.0837137205287761 1.0316723326872697 0.6677707601000654 0.22877250827029688 0.5158709656882448 0.13069284909823634 0.04838589336370098 0.13335089004796433 0.58227677210958 0.26214631513836006 0.5399891579944445 0.11587797788115056 0.42124384306032964 1.8750756280219594 0.05301806042976093 0.017402786130455466 0.09870208356539018 0.015173031489737131 2.2668902543778158 0.2952249548091312 0.2949462802529105 0.08666623705485771 0.9059877933306554 0.9197988614570172 0.02155745098764737 0.4288918421095894 0.039315242751311305 0.01903718861208145 0.43450402014901224 0.20748125365603573 0.03998269823566687 0.019485398650797067 0.01073827858102929 0.07520324740134639 0.4391025885830647 0.00991577611331737 0.24978395449811416 0.3805697468033859 0.06599564023612098 0.11389952059216002 0.05646467021150253 0.019885877602691567 0.01608836622480166 0.04950017677688359 0.008498724312680244 0.022214155160034884 1.9293058391252889 0.013487994675110202 0.025278865370321302 0.04364293562807639 0.029051896047135813 0.03829776240950778 0.03328412749360724 2.1053625561430933 0.012173822106575647 0.33507722735761164 0.08405355360774251 6.421029647331485 0.4806908890688563 3.833271475427536 1.9093710325550282 0.5386165571136037 0.033276384832132085 1.8185573152318104 0.3506577006825319 0.007818827233705897 0.10829304679473417 0.09562143340808883 0.06482045045296086 3.6337360919426143 0.2950614452127935 5.94919822872016 0.04237105342629229 0.37260191443812857 4.157022276691166 0.5847022185193271 4.817345655754103 0.9380742713088696 0.015539333660758577 4.447685502579131 0.2578477819500507 0.1404278986350905 0.7135509378865983 1.5166412228971295 0.01239610025747148 3.9413072747236484 0.05987380963808044 0.012401577131161069 1.7502012229124146 0.02485336763778866 2.4427483967905066 2.7828506609228785 3.3655203066247963 0.01833695501500402 0.09879173690097283 0.25257949838836774 0.00741474298308759 4.256435352548161 4.061548602012883 0.04310225558553028 0.08198303597074669 0.02487149688161258 4.176093386008117 1.3719192381354008 0.5063610503278192 0.23911768825655053 0.1156001696362769 0.02175278160892099 4.3041660392076055 1.9740671006584134 4.772220835644215 4.239410149330731 0.05437772472854426 0.024274589569658004 0.8080642274626594 0.1992864021201491 0.7530771151844287 0.47186155040666644 0.018897244396897578 0.0993434774806848 0.8830380982955126 4.404054543355817 0.005880997275248108 0.007807598100851901 3.735056356406233 0.9566197072661727 0.18374802999566203 0.2109922795507601 0.7669583458855704 0.08919792603192732 0.26586955716609095 4.61014608296201 1.6158511425315218 4.331135811331698 3.1484048465997567 2.11784372476284 0.2479257171703871 0.1492158911966132 3.1620644460625704 0.10528659030678465 0.10966401682711593 1.9878039035896466 1.4461567162771096 0.09358576317419966 2.1615027103033735 0.01778829184196112 0.08182556941142849 0.07127852094721776 0.378796325958415 0.008843526323054324 0.3178132298577343 0.7266922037932051 0.062271283814664354 0.3821885844479904 0.045102870883513134 0.8175305648664123 0.12107270986116526 0.018940932201769945 0.015998652871071883 4.403413196250261 2.406581729990205 0.14803075988595693 4.784657933651168 4.975718123024291 0.013561049224949424 0.007394499432036344 0.006927100566487843 0.004890746161305955 0.006867294559636948 0.6830569805880837 3.098134518622687 0.16830921033511445 0.09706278311976702 0.9006347962566879 0.4985739004513554 0.7761342099353421 4.278512516362248 0.005750621821069447 0.005160930662312638 0.006982967187198762 0.009566117936637274 0.6628205243868641 2.851767763606568 0.08996887246768451 0.04077317388770024 0.07687326779489582 0.31693012290909817 4.051607662981383 0.02318323666501958 1.158717553178528 3.3131292045061036 0.6425738850367833 1.1821742330532348 4.144978230175455 1.0406612467473344 0.15466068878514425 4.025485670814764 0.03544525449846575 0.007735430970247027 0.5985171602116424 0.0050035824466126404 5.176654061717181 0.007579310746393504 0.021568600598090275 0.09795306522678296 0.5090724905890297 0.8915077797696994 0.007328181050792058 0.025294829189898754 1.5333597309525748 0.5813837503029767 2.650565459676995 1.111522798051169 0.7280180324284664 1.5323225901327706 4.2954033838307515 0.338657694689597 1.3311993284431758 4.5142669546216965 0.3051988436323693 0.569244358561055 0.007722469339847605 0.0075440629438256164 0.020012084684878684 0.21578745848515707 3.888481870645925 1.099678346595936 0.8370277177287379 0.44614894524083804 0.052190688633410746 0.4276355440297951 0.01674067793329417 1.795847276137937 0.438669807042107 0.6576657216912808 0.05765425287699092 0.14564771879434155 4.487689147415998 2.295168713827569 0.04737915352393031 1.656001690287921 0.045681843561740064 0.2635302315969039 0.045618130110521904 0.01383868188182112 2.311675165056134 0.2897770167577063 0.007943131828576424 0.012368360715117934 0.01301010487412983 0.9567915825376744 0.019997085114046072 0.006692832398412158 4.997067459102407 0.010851874140451757 0.16454563972480132 1.165146898686763 4.631380093760029 2.449039118455386 3.0920479161741716 0.8885176196637753 0.03712112635872889 3.0844732925520195 0.006645636317759769 2.5653148028623503 3.079839414430204 0.007555554355349112 0.1831358629261222 1.7138629628810047 3.2103106706265816 0.7809731028286628 0.07007996494043489 0.41195638055415357 2.6352659011758854 0.4007101630892901 3.424529613605881 0.5196661972450698 0.8152905254865686 0.012638984756525492 0.6728801780352424 0.31836977467079597 0.02995870144992887 0.06310675814753594 1.607391667015531 0.3404734044062375 0.09391758914299213 0.09878318004301048 0.046932601020923635 0.01136739619552219 4.225305284894426 0.013615267931488043 0.6940840712236546 4.416226586948118 0.014794797819828204 0.012748870713242485 2.964047199623477 0.8909839087982887 0.1255708743608282 1.0563660688158643 0.1998209988786101 3.7197775418898478 0.007139356716423285 0.19467713503924108 1.9517904757082845 3.466957734281757 0.7846152953861607 0.1385878196313311 0.4773367776465413 0.007419554970649819 0.007296665860116357 0.005386671099233004 0.007578798029518251 4.503755038666862 4.495843428176653 1.249202154952224 4.445653973525578 8.062531155310822 0.9078833416099709 0.33507814938765806 0.00672386829297411 0.006711331628666895 3.394475256570628 0.8502415824966677 4.85084228213725 0.005582690497519713 0.010752902923357243 0.03984835623001629 0.005134444924823944 0.00705178288743195 0.6520753321969731 0.8560506674741621 0.9402958048623674 4.4481523070875015 3.2750315694068455 0.5004579885412395 0.4073725308646919 0.1381879183919928 0.038036281078891274 0.1928450487726221 0.07898161685319882 0.01871061347774763 0.004540570474395092 0.034244265890580605 0.065376439543978 0.01934185980505957 1.3920170852144715 0.02015762751110392 0.0523608701974693 2.917632172772891 3.323472485638102 0.018985122724130166 0.013411513894460474 0.007610965758945619 0.11638851969014338 0.004205128667395633 0.19113436805997472 0.5567157767237365 0.14133307492586342 4.343479505112325 1.1332655677330112 0.007418157553804599 0.019933035134402182 0.007686879069205418 0.4457361656269072 0.0077566571114101104 0.15380973216088198 0.005482687597005033 0.16878297245048537 0.5620860873710541 0.010102353257744901 3.4629594168009286 0.0074638546704698895 1.033392142539074 1.8930840957740553 0.13913438787244395 0.231583323537546 0.4495192887168582 4.06105228917196 0.00842092465713816 0.48524504074833974 0.17698466095564452 0.009322302238796933 0.04585802797739757 0.4707415211013403 0.007938018706054614 0.008223278206399348 0.010149514766689087 0.12481572556406065 0.007231477637310493 3.4733682634586156 0.19516200997627633 0.8321869757878009 0.0071368939758479095 3.071649649912762 0.00760847013307677 0.009211911837954516 0.018649746072144736 3.008715828404564 4.004707091685617 0.008299924976659242 0.4810973935074453 2.9153816642710484 0.013541252997096746 0.5524637185130823 0.4345345978974998 0.9649448911357767 0.012541567258465643 3.5322927740640644 0.9853524182879962 0.0075807463197750955 0.013446741227695751 0.2810735881964492 4.989609970367259 0.0752042382683856 3.3899171001026867 3.359380618278316 0.20869201606487373 0.683107969190047 4.414930497850852 2.947166855675782 0.00739855882012295 0.008067612817758309 0.006811627763668477 0.011352491398483055 2.8284774982250642 1.3466025628727247 0.10592339770269649 0.009875120119347268 0.00777335274905854 2.3304003531298583 4.358225011090765 0.6692154611364629 1.5089011898360813 2.981505923132386 0.3351621824841754 0.051836327823625836 0.16752403284108233 4.907423253597935 0.6709202131100768 0.3031634305783905 3.801773813760531 2.6742325943658303 0.8432188627508966 0.0461848446350712 0.021226374467671803 0.7297809293072862 0.20000813995838412 0.02363003697031198 0.04100348493138165 0.027255659210264654 0.03599582691832804 0.03104153810964982 0.30879578834870886 2.900880107984351 0.6340507589998544 0.017322573284091473 2.761634727922679 0.007745789461035274 2.578491549130391 5.201361786573135 0.8965112132069887 0.022539813804703542 2.7102774179734848 0.5526469736942757 1.588638765369769 0.49087752829722225 0.3297344223360058 6.705739184155565 2.64065307401369 2.593530547135882 2.334033513623267 2.348600557676423 0.1922435969795324 0.015204816404497652 0.00806383458790947 1.7779385558525174 0.35406366386996635 0.007822132930078225 2.362914156529613 0.08752810609534672 0.2091765335848151 0.0410242294756553 1.6681569516438686 1.6610674029896981 1.0837168959839323 1.3193303544872128 0.17527051228016433 0.2722888113794181 3.716242882915432 0.1617204312019879 1.6611737521211662 0.8071955291863986 0.2332766975750902 0.8052975744206061 0.810140192473411 0.01758736425830295 0.6585604282445147 1.3546405597942872 0.3791423327691139 0.12173598876510489 0.17487147959989957 0.035527336724124524 0.37821992234343177 0.07261453022312053 0.3088926771159621 0.02894843567477511 0.009001611657752796 0.03495446939507934 0.1658856619990525 0.008141190007473143 0.4632607216578473 5.189529579989568 0.23130118441845127 0.013962028397877727 0.08442714888890597 4.6692463965024515 0.008665403522943475 1.4082601440137616 0.20672696144264047 1.3723491329936957 4.8744713929630805 0.0864643613470981 0.43630650392481224 0.016930967701354264 0.04115603494898417 0.019678819783813847 0.9166436244477372 0.09024853311557743 1.132317162537123 0.37856915960805526 0.06037657294775257 0.1795160296543453 0.03363872121464596 0.07125800012810715 2.6466589753492142 0.2580778067777414 2.662994004047272 1.9566783459131034 1.0691831622135017 0.03368183432031698 0.08827642320003048 0.0315713702900387 0.1263450141896731 0.06000076031248841 1.5545774264052712 0.01764940010240059 1.405401042274019 5.032124773373767 0.15733849808004516 0.7690961525924748 2.4315484202268727 0.015477790175454118 0.04219097941971887 0.01450220645328262 0.005441923974600164 0.01718596488223659 0.6248110041314706 0.2964993441145431 0.7803519190871703 0.9640019639824966 0.8164401583993867 0.12735675122818746 0.031952881269659145 0.06115032153093845 0.31168334011395105 0.014204437261550492 0.7319574567725327 0.01957869470369579 0.19574885665512146 5.335737663954279 0.22119212616895303 0.08441002438588724 0.042814837304888775 0.04892520641786003 0.11062123739668672 0.022401097204645476 4.215192123136458 0.4961735515140457 1.0673434341153427 0.5142402543752658 0.0824371571624704 3.6468301536547574 0.011480696754166608 0.008371137624694002 0.1398896728412676 0.02061712730751852 0.45291458095569953 0.46682998448546253 2.377547449171158 0.36689656816475313 2.0762642350667573 0.0662917150069058 6.48942949497161 0.3140293972816317 0.334492732120409 1.0738361181913523 0.12485810751145046 0.9653640739117684 0.20644612282508362 0.12210588932074566 0.05366711662297785 1.1650820946628417 0.8395011897841951 0.01638287089278865 0.7305725920108254 1.2434657168198573 1.4967589059545516 0.35102833064289996 2.3344818692955718 0.014300360379664536 0.36228271117320116 0.010055359124837444 0.05176914510682112 3.44377456770239 0.2502881957397336 0.008853247083009708 1.165879740421632 0.01299674213282231 0.04055382540907044 0.02710062711323997 0.008628581329928333 0.011314375980853346 0.006092313009674236 1.1549948541914126 0.015246985774784878 0.47186395370597567 1.6676022762290876 1.2487257300564873 2.7124904050098055 0.040862803617309956 1.7488377423092565 0.022674061827724523 0.189253267181239 2.3813501972582727 0.2435005966543086 2.742239618037368 0.04884130390293355 0.4609520562891633 0.9411661870263173 5.9734206680286475 5.961318397693682 1.062818088661568 3.326000419708074 0.020053044847859317 0.5028643360591606 0.02129945342536649 4.317876176638527 0.017671315777948494 0.038544470666621374 0.7383374512715 0.020227614248681483 0.11375874842652123 1.3260411977172843 0.3626136358229492 0.5818140774677989 0.519923397547429 0.029285391041290378 0.03169401412217729 0.05535703322816886 0.09974829227176572 0.060341027608400655 2.3837669783690685 0.18083029457155564 0.23508158689182906 0.2118154433130582 0.007877672295294137 0.602346917202584 0.010490609520991035 4.235004562513519 0.034429559564341475 