# vtk DataFile Version 2.0
Really cool data
ASCII
DATASET POLYDATA
POINTS 4912 float
0.0 0.0 0
100.0 0.0 0
100.0 10.0 0
50.25 10.0 0
50.25 3.0 0
49.75 3.0 0
49.75 10.0 0
0.0 10.0 0
0.5000000004713866 0.0 0
1.000000000927485 0.0 0
1.500000001363928 0.0 0
2.000000001715368 0.0 0
2.500000002054665 0.0 0
3.000000002393964 0.0 0
3.500000002774895 0.0 0
4.000000003277256 0.0 0
4.500000003692882 0.0 0
5.000000003976668 0.0 0
5.500000004274332 0.0 0
6.000000004780162 0.0 0
6.500000005285994 0.0 0
7.000000005791824 0.0 0
7.500000006297656 0.0 0
8.000000006803486 0.0 0
8.500000007309318 0.0 0
9.00000000754453 0.0 0
9.500000007717295 0.0 0
10.00000000820231 0.0 0
10.50000000919386 0.0 0
11.00000001005358 0.0 0
11.50000001089247 0.0 0
12.00000001160647 0.0 0
12.50000001222332 0.0 0
13.00000001261813 0.0 0
13.50000001320723 0.0 0
14.00000001448328 0.0 0
14.50000001538463 0.0 0
15.00000001655659 0.0 0
15.50000001749263 0.0 0
16.00000001844256 0.0 0
16.50000001885125 0.0 0
17.00000001942646 0.0 0
17.50000002026536 0.0 0
18.00000002147896 0.0 0
18.50000002276195 0.0 0
19.00000002303186 0.0 0
19.50000002330177 0.0 0
20.00000002411291 0.0 0
20.50000002470549 0.0 0
21.0000000253501 0.0 0
21.50000002582124 0.0 0
22.00000002645197 0.0 0
22.50000002704107 0.0 0
23.00000002832406 0.0 0
23.50000002920459 0.0 0
24.00000003004349 0.0 0
24.50000003088239 0.0 0
25.00000003206824 0.0 0
25.50000003379531 0.0 0
26.00000003552239 0.0 0
26.50000003724946 0.0 0
27.00000003755407 0.0 0
27.50000003846583 0.0 0
28.00000003923187 0.0 0
28.50000003918259 0.0 0
29.00000004102069 0.0 0
29.5000000416202 0.0 0
30.00000004290318 0.0 0
30.50000004300656 0.0 0
31.0000000420691 0.0 0
31.50000004118022 0.0 0
32.00000004132176 0.0 0
32.50000004149453 0.0 0
33.00000004170198 0.0 0
33.50000004287395 0.0 0
34.00000004384817 0.0 0
34.50000004249437 0.0 0
35.00000004244509 0.0 0
35.50000004239582 0.0 0
36.00000004245755 0.0 0
36.50000004329645 0.0 0
37.00000004513455 0.0 0
37.5000000477498 0.0 0
38.00000005036505 0.0 0
38.50000005220315 0.0 0
39.00000005304206 0.0 0
39.50000005353401 0.0 0
40.00000005333207 0.0 0
40.50000005421954 0.0 0
41.00000005567601 0.0 0
41.50000005740308 0.0 0
42.00000005913016 0.0 0
42.50000006085724 0.0 0
43.00000006258431 0.0 0
43.50000006431139 0.0 0
44.00000006408864 0.0 0
44.50000006464304 0.0 0
45.00000006637013 0.0 0
45.5000000680972 0.0 0
46.00000006982427 0.0 0
46.50000007155137 0.0 0
47.00000007327843 0.0 0
47.50000007472796 0.0 0
48.00000007472724 0.0 0
48.50000007551063 0.0 0
49.00000007675892 0.0 0
49.50000007837843 0.0 0
50.00000007921737 0.0 0
50.50000007611497 0.0 0
51.00000007266216 0.0 0
51.50000007051736 0.0 0
52.00000006870559 0.0 0
52.50000006549217 0.0 0
53.00000006532495 0.0 0
53.50000006340217 0.0 0
54.00000006157653 0.0 0
54.50000005975088 0.0 0
55.00000005792525 0.0 0
55.50000005615513 0.0 0
56.00000005402418 0.0 0
56.50000005272938 0.0 0
57.00000005175028 0.0 0
57.50000004992467 0.0 0
58.00000004809904 0.0 0
58.5000000455934 0.0 0
59.00000004519715 0.0 0
59.50000004296908 0.0 0
60.00000004114344 0.0 0
60.50000004036905 0.0 0
61.0000000388123 0.0 0
61.50000003797199 0.0 0
62.00000003731208 0.0 0
62.50000003570157 0.0 0
63.00000003389675 0.0 0
63.50000003122457 0.0 0
64.00000002933822 0.0 0
64.50000002551418 0.0 0
65.0000000194697 0.0 0
65.50000001766836 0.0 0
66.00000001634231 0.0 0
66.50000001490875 0.0 0
67.00000001295126 0.0 0
67.50000001159053 0.0 0
68.00000000965386 0.0 0
68.50000000539964 0.0 0
69.00000000128068 0.0 0
69.50000000200856 0.0 0
70.00000000029395 0.0 0
70.49999999907897 0.0 0
70.99999999758295 0.0 0
71.49999999571567 0.0 0
71.999999994433 0.0 0
72.49999999486944 0.0 0
72.99999999363362 0.0 0
73.49999999042018 0.0 0
73.99999998851476 0.0 0
74.49999998793812 0.0 0
74.99999998650452 0.0 0
75.49999998433195 0.0 0
75.99999998407449 0.0 0
76.49999998046903 0.0 0
76.99999997858791 0.0 0
77.49999997992639 0.0 0
77.99999997841302 0.0 0
78.49999997601142 0.0 0
78.99999997594827 0.0 0
79.49999997767536 0.0 0
79.99999997940243 0.0 0
80.49999997943296 0.0 0
80.99999997760733 0.0 0
81.4999999745049 0.0 0
81.99999997152742 0.0 0
82.49999997199166 0.0 0
82.99999997233094 0.0 0
83.49999997405803 0.0 0
83.99999997578509 0.0 0
84.49999997678707 0.0 0
84.99999997698411 0.0 0
85.49999997662951 0.0 0
85.99999997813454 0.0 0
86.49999997747813 0.0 0
86.99999997647127 0.0 0
87.49999997564485 0.0 0
87.9999999738192 0.0 0
88.49999997199359 0.0 0
88.99999997016793 0.0 0
89.49999997110397 0.0 0
89.99999997227594 0.0 0
90.49999997108868 0.0 0
90.99999997217738 0.0 0
91.499999974182 0.0 0
91.99999997525684 0.0 0
92.49999997841331 0.0 0
92.9999999807649 0.0 0
93.49999998216586 0.0 0
93.99999998337596 0.0 0
94.49999998384015 0.0 0
94.99999998456803 0.0 0
95.49999998665594 0.0 0
95.9999999888132 0.0 0
96.49999998808393 0.0 0
96.99999998926977 0.0 0
97.4999999914687 0.0 0
97.99999999325128 0.0 0
98.4999999933824 0.0 0
98.99999999655279 0.0 0
99.4999999981827 0.0 0
99.99999999999999 0.5000000006396631 0
100.0 1.000000001299887 0
100.0 1.500000002317897 0
100.0 2.000000003487696 0
100.0 2.500000004137077 0
100.0 3.000000005358917 0
100.0 3.500000006945049 0
100.0 4.000000007906681 0
99.99999999999999 4.500000010498953 0
100.0 5.000000011460584 0
100.0 5.500000009022157 0
99.99999999999999 6.000000007850081 0
100.0 6.500000006348403 0
100.0 7.000000002851798 0
99.99999999999999 7.499999998487827 0
100.0 7.99999999873822 0
100.0 8.499999997583487 0
100.0 8.999999998597158 0
100.0 9.499999999107754 0
99.50249999664918 10.0 0
99.00499999876271 10.0 0
98.50749999530431 10.0 0
98.01000000040158 10.0 0
97.51249999884101 10.0 0
97.01499999819632 10.0 0
96.51750000018497 10.0 0
96.01999999953335 9.999999999999998 0
95.52249999699089 10.0 0
95.02499999584315 9.999999999999998 0
94.52749999523319 10.0 0
94.0299999934887 9.999999999999998 0
93.5324999924381 9.999999999999998 0
93.03499998875768 10.0 0
92.53749998517786 10.0 0
92.03999998264233 10.0 0
91.5424999825597 10.0 0
91.04499997932336 10.0 0
90.54749997866136 10.0 0
90.04999998153818 10.0 0
89.55249997951961 10.0 0
89.05499997562407 10.0 0
88.55749997417101 10.0 0
88.05999996892585 10.0 0
87.56249996670954 10.0 0
87.0649999651871 10.0 0
86.56749996280423 10.0 0
86.06999995614703 10.0 0
85.57249995610951 10.0 0
85.0749999505278 10.0 0
84.57749995115991 10.0 0
84.0799999490754 10.0 0
83.58249994831624 9.999999999999998 0
83.08499994748769 10.0 0
82.58749994242991 10.0 0
82.08999994481754 10.0 0
81.59249994848538 10.0 0
81.09499994708784 10.0 0
80.597499943796 10.0 0
80.09999993969228 10.0 0
79.60249994018211 10.0 0
79.10499993698046 10.0 0
78.60749993380307 10.0 0
78.10999992986937 10.0 0
77.61249992909634 10.0 0
77.11499992722001 10.0 0
76.61749992855293 10.0 0
76.11999992753704 10.0 0
75.622499928183 10.0 0
75.12499992864855 10.0 0
74.62749992538446 10.0 0
74.12999992733147 10.0 0
73.63249992597903 10.0 0
73.13499993379288 10.0 0
72.63749993446315 10.0 0
72.13999993679872 10.0 0
71.64249993910654 9.999999999999996 0
71.14499993902395 10.0 0
70.64749994084953 10.0 0
70.14999993420616 10.0 0
69.65249993689218 10.0 0
69.15499993857205 9.999999999999998 0
68.65749993687265 10.0 0
68.15999993893418 10.0 0
67.66249993663806 10.0 0
67.1649999371383 10.0 0
66.66749993844344 10.0 0
66.1699999432059 10.0 0
65.67249994241897 10.0 0
65.17499994397048 10.0 0
64.67749994295106 9.999999999999998 0
64.17999994384685 10.0 0
63.68249994625879 10.0 0
63.18499994575982 10.0 0
62.68749994432067 10.0 0
62.18999994695464 9.999999999999998 0
61.6924999500223 10.0 0
61.19499995449505 9.999999999999998 0
60.69749995735798 10.0 0
60.19999996026607 10.0 0
59.70249996208818 10.0 0
59.20499996359457 10.0 0
58.70749996309563 10.0 0
58.2099999659447 9.999999999999998 0
57.71249996743375 10.0 0
57.21499996891936 10.0 0
56.71749997135385 10.0 0
56.21999997508937 10.0 0
55.72249997649861 10.0 0
55.22499998164448 10.0 0
54.7274999841882 10.0 0
54.22999998632081 10.0 0
53.73249998912996 9.999999999999998 0
53.23499999151503 9.999999999999998 0
52.73749999652731 10.0 0
52.23999999229871 10.0 0
51.74249998848641 10.0 0
51.2449999934588 10.0 0
50.7474999992378 10.0 0
50.25 9.49999999819403 0
50.25 8.999999998036046 0
50.24999999999999 8.499999996515061 0
50.25 7.999999994609963 0
50.25 7.499999992488026 0
50.25000000000001 6.999999991419312 0
50.25 6.499999991261326 0
50.24999999999999 5.999999993098275 0
50.25 5.499999993287234 0
50.24999999999999 4.99999999389749 0
50.25000000000001 4.4999999945635 0
50.25 3.999999996301321 0
50.25 3.499999998844553 0
49.9999999777305 3.0 0
49.75 3.500000000811603 0
49.75 4.000000002564914 0
49.75000000000001 4.500000002633064 0
49.74999999999999 5.000000003395103 0
49.75 5.500000003934107 0
49.75 6.000000004138555 0
49.75 6.500000005681221 0
49.74999999999999 7.000000003816393 0
49.75 7.500000003946496 0
49.75 7.999999999033513 0
49.75 8.499999996388059 0
49.74999999999999 8.999999995514502 0
49.75000000000001 9.499999998742325 0
49.25249999786197 10.0 0
48.7549999973858 10.0 0
48.25749999407857 10.0 0
47.75999999293629 10.0 0
47.26249999277931 10.0 0
46.76499999289642 10.0 0
46.26749999384968 10.0 0
45.76999999350534 9.999999999999998 0
45.27249999177671 10.0 0
44.77499999060667 10.0 0
44.27749999031091 10.0 0
43.77999998939067 10.0 0
43.28249998829694 10.0 0
42.78499998627341 10.0 0
42.28749998489519 10.0 0
41.78999998481454 10.0 0
41.29249998253426 10.0 0
40.79499998166953 9.999999999999998 0
40.2974999819844 9.999999999999998 0
39.79999998116129 10.0 0
39.30249998198269 10.0 0
38.80499997961915 10.0 0
38.30749997822706 9.999999999999998 0
37.80999997613414 10.0 0
37.31249997439162 9.999999999999998 0
36.81499997273237 10.0 0
36.31749997263785 10.0 0
35.81999997124576 10.0 0
35.32249997026999 10.0 0
34.8249999698424 10.0 0
34.32749996920663 10.0 0
33.82999996670431 10.0 0
33.33249996713021 10.0 0
32.83499996547442 9.999999999999998 0
32.33749996451255 10.0 0
31.83999996458456 10.0 0
31.34249996385859 10.0 0
30.8449999633061 10.0 0
30.34749996205277 10.0 0
[...]
CELL_DATA 4676
SCALARS flow double 1
LOOKUP_TABLE default
3.027310007769117 7.3059700002158205 0.027101308874357105 2.2127456904084495 1.9047675805308455 0.018625533793219115 0.024152464557556503 0.02855513865796177 0.5660154451964826 15.814209024007502 0.002892665778623254 0.009161862175786755 0.036952490199704015 0.4613643255971776 0.038990035631069064 0.011328203701629487 0.01668746168724507 1.1826434458626258 0.04737348452389667 0.22911998721624016 5.682452194204777 0.004252617606036417 6.791977695913433 0.9241458571697546 0.04506504440136054 0.0021786363552292218 0.022193468438206753 6.941483481378383 6.998464552110445 0.6893177206713039 0.646615296928607 0.055806576422568775 0.010527637939471514 0.005182934062205634 3.5426212591121575 0.00565433318995337 0.44084929438871173 0.024982830320828903 0.05305349564356394 0.020350235799706438 7.508746352270571 5.090141428994569 0.7115529933879812 1.5148037061301642 0.018172566950442164 7.205531152401983 0.0333530485036866 5.9945649495625055 12.506613296248268 0.06736049035277483 0.035555357131775704 4.497861038393277 0.017050142718328276 0.4030888436801755 1.1847666753811326 0.01558055179576776 0.01333972480959074 8.391230906415457 0.8392088490045997 0.011400121667315551 0.9040404210099919 0.031014091040079572 0.014015665134549101 5.427078418966494 1.3551810182679136 0.3274511933931049 44.9187702434637 0.012770212229524564 0.08545653824318718 0.011776585988883488 0.003529517059151522 0.9644209474542207 0.010843757226433666 4.832145634297277 10.186477056407918 0.09068816628958451 0.1000591948123502 2.8606106465649104 0.022185432225630977 0.019960867164538567 14.20032419163107 4.111027302115418 0.9818507429475668 3.9387058206502132 4.254201128153371 0.5190083432274806 0.015410080746588667 0.010651766773830422 0.01731710771559222 0.00433356782936023 3.7158527118713978 3.1908437952080515 16.552272363655604 0.12667100711518858 0.05708368051764115 0.011734083064199617 0.0774575883845171 8.525582410543004 0.004958070543542862 0.026295462960922555 0.0012824905895708056 0.0156340573788398 0.19234590576384464 0.016300182344886286 0.012817343107228249 16.4467274270916 1.3656302987709377 31.888850414587136 5.040651825841837 1.5803678584398417 1.26457892655032 0.6088488733886906 0.14535123630047936 7.894448109171565 0.008398554962473413 2.120455895058567 0.008762675020555642 0.002079061109844733 0.05763813908830555 0.014612179359026051 0.0720859188084219 2.75783206907086 0.07242963823558618 0.00538971123904154 0.1446312355770179 1.2527990815367753 0.4824771853419408 4.895778336042736 6.416006812712786 7.063671323209199 7.302705246691968 3.0022847860272743 0.011386773323229658 1.7877204664781223 7.441038953167673 0.0337326812632555 21.479092038951006 3.4189038873940616 0.21358230332874376 0.019604197964973 1.4094489669395296 0.015910415665412125 0.013361751026834772 0.004880666162810814 0.013340796171709858 8.003386505171441 1.65457948345898 0.7753475017269663 0.4264448333811147 0.02394171280392571 0.006019116579050167 0.016554454485540604 0.2554967146547715 0.012977429996668441 0.014238596537758094 0.23558100500820248 2.592128054597775 1.940892705028857 1.5237749990582745 0.4774337098086843 2.474081930348666 0.6486208503845615 1.767872298763481 8.476582565939916 0.10758829270206854 1.6878261029371275 3.164769376961612 0.0403299697249198 0.5257418423011694 2.3769486531043342 0.014059514048623016 3.747134074678349 0.021132613131084808 1.438139524060497 4.864350742563759 0.6547778506779867 0.011089012192548257 2.2323934332121036 3.598585981699315 0.10447890411277969 0.9806944863128917 0.012059547019692292 5.875356438971223 0.5194156696676853 0.015756777532452006 15.28092469799135 0.409754602610529 5.287361460597111 0.44439935778101974 1.791569104455979 0.4100852735049435 0.012155090736089011 0.04958567038647035 0.00939081352814879 0.046478348226039884 0.04860161290707487 0.4026413960859957 6.733255830357861 4.685771350700257 0.01360393860530578 12.703386014416482 1.1395735681137655 0.019664637796900825 2.282023241687114 4.67299012235873 0.014624418522342145 10.124350037075212 0.007315762265646203 1.8950218963354346 0.028619055339082967 4.112003694714032 0.015629985064497632 0.03270747363661411 15.426768840201643 1.778184106572911 0.01967444200303276 0.041985069346132275 19.079095620308856 0.015543505783459395 0.006766522053732033 0.02517508133597759 0.04817349727107219 7.74526552221335 0.02953059382812611 0.013498158846424017 6.758017713139675 0.06100731240922049 0.03413549970762365 1.5060690067327558 15.533872586003321 2.1043471693382028 0.0843752432690501 0.13786413745052578 0.05149890019659891 0.08457952997481252 0.024141207218178654 0.10527961491686741 0.007841701122485882 1.431163299093235 0.059840487777937955 0.1229079196489659 0.03539230343873374 0.0756994620723166 2.8878835138115795 0.155414234908181 0.016954740251137284 2.912935389093066 0.09743141961558918 0.18170404492174766 19.985457820355077 0.12320941920594891 0.22932770141783929 0.011078726897802081 0.08981680603346451 2.4909518154105674 0.14414557056185662 0.2707558946399607 0.014566459073465775 0.4122263742215027 14.838494668441573 0.01494823211657824 0.1824887555822116 0.3454599507778929 0.13287259657421477 0.16548332123786189 1.050112435649926 1.2907404776885443 0.21392688397889156 0.40175119709502644 0.0651772241843584 0.06248522237446119 0.19641432041674983 0.021956113814292917 0.26614090791052913 0.5077856411465379 0.08243057750939088 0.019130986466671634 0.03188551024886695 0.10530588802449761 0.29464874788753925 0.3044464569756073 0.5864117882348356 0.09791944042212736 6.644878472312131 0.04711112068952323 0.7433282256123805 0.48360308451861456 17.54823566907517 0.1558871642274108 1.412570991535066 0.5628523068912586 0.1794546379873045 0.4347246876668506 0.06803382203730535 14.52781977081152 0.090366515484008 0.8684720424148259 0.01763800449551255 0.7115458439349636 0.22972544979650636 0.05976378129673171 1.5016190641719902 0.11947923737364972 1.1027430699250573 0.9002247502051335 0.020031937836888503 16.000899874266697 0.010450377246801458 0.01500919817319878 0.10708063463948253 0.020993305213169874 1.061311488459553 15.936612515306134 0.17658873138039594 1.3546226488861064 0.10250936887636733 0.28904993545304386 0.9391113977398429 0.0187375951811272 0.10800055658624552 0.028332865410733796 2.5676350293599977 0.26359356731957345 0.09951314527762847 0.015987963171084148 0.15100705081905144 0.03335113345385387 0.6090538634004764 0.22353100793605976 0.19420435302845712 0.10060445125802582 0.05017124048518251 0.39113448644783266 0.006840190168836253 0.7698743803741079 0.0244713773738216 1.4020785454615208 0.01913895501575442 0.22310039720265396 1.0693511413419832 0.05783263078719326 0.08241785469965388 11.901325558711926 1.3400394682525545 0.7214620889875496 0.5730851280849095 0.0425663507163545 1.7702050882042624 0.8865115104294791 0.011118401194066407 1.4563733392213898 1.4143076758311857 0.016314904323739582 0.0198536324362826 1.060066352058943 0.8434260990728822 2.5649130633046897 3.03033655338647 1.293974159586786 1.4747031187617285 3.4753397599890916 1.7826041723533446 1.3774568483390652 0.1358127704411733 15.616907705351089 0.2655262848408786 1.6180200182233364 0.008985055115354261 18.977497667125576 0.4941410799665619 3.1808347776733514 1.194217858526546 15.180567971045395 1.6375081172575285 3.813793919150461 1.2579675696673478 1.2109349690494968 1.2489718021679743 14.844441430899254 0.20065498028145132 0.016331555857352287 0.33408343795292056 0.017515900865711958 1.5288509324257422 3.2428896845407253 1.5759636156919927 0.6579483612043082 0.7272000520683334 2.067192940700846 2.017112511221741 0.021712012796420814 0.5207140511147715 1.9256616727943805 0.8321472359830877 0.11602595723094103 0.016036245470834567 1.9842851858920993 3.19115324004468 0.09146883877236826 0.2917819452405639 1.6730116199428364 2.412403384151403 1.5104332857431855 3.0253377725860133 0.9755169652929677 2.2425060260119563 0.45236899123099306 7.114326971043984 2.310218885579571 1.069555596766176 0.0027835088449284025 2.607697555495215 0.24607066146143247 1.1427732308926908 2.6856304872476167 2.5622311285172317 2.3466036692763828 0.1717725187552313 4.026323181029496 2.812505834427662 0.013102199558718781 0.25794062648661303 1.482068972257498 3.2580657175354566 4.1130915100788705 4.007975280712169 12.210672805517438 3.5371978456323085 13.51163497189282 0.715736112799778 1.526823523228456 3.3526050744209535 4.654116345718103 2.737048163984129 1.7253771505765996 3.7639759030019424 1.7871119549248362 22.428598085232984 0.2761257267168535 3.870592463494594 0.013167451541306219 0.012678224678041033 0.015226170204454367 2.1848688665564144 4.329928001891295 4.635747494887014 0.10992505850835699 0.024143997239022053 2.6833426956645026 5.40104725904761 5.82604452114716 1.3486617938442582 0.02152503045948142 2.7777368299137346 0.01599582018211608 6.2910263692851585 2.266076505079953 4.955618960218217 3.844317835194865 0.025497716395030963 0.026212198723491825 1.7009155871788308 2.8795983649322294 5.286873397130189 1.5024971290649807 0.6055585860963488 0.4220425000928003 3.4444705855298925 0.07101732808889631 0.020581054686603338 0.01929654586499531 3.2663800717676112 0.6150659681209495 5.014610039993827 0.023415167215640065 1.5921559789520958 0.01803499494900419 0.3857331938606298 0.05053186724174224 0.09023028323210297 1.5663070785953839 0.5638688828767257 2.0101416134745445 0.03607997402175979 5.627199054449393 0.06941141301136287 0.017435731314874928 0.054374308151312695 3.3838199971191205 0.2525623454295618 1.8998917512353304 0.3003992682214157 13.426546531563282 0.40810697929651524 4.177930153577131 0.23792577893097322 0.4652369012348589 0.3554458852817031 0.14479439925069143 0.09859375052229111 0.21425027358352908 0.3165148579331299 0.11429111843375513 0.1499126189740217 0.7009284893231629 0.023718690990879 0.16984274973587968 2.935431367828109 0.05396656725723377 2.5126217063656733 6.429018664111612 0.9438116566226328 0.025558622216817026 0.05695259402891045 5.965710051523833 0.01748030254823474 1.035682643042797 2.150472078978543 0.03839940872695213 0.5252705071885858 4.324638514297537 0.026872905946873946 0.5948287641457658 0.4012474564828511 0.1018452934764233 0.01985404260137627 0.020182346314147292 0.04008319420361387 0.11475853659497535 0.2003852940473781 0.06858067941418192 0.2920817097119916 0.03725956170669002 0.028451895334656693 0.013479743293247103 4.945785318984723 0.030444338369577068 0.02045363418427004 0.5247207109674635 11.9857764653245 6.299395200970337 0.04280829199394309 0.015854508833998707 0.16054323964572123 11.86586859968573 0.05708898281794014 0.23774833662301517 0.01804368192053935 5.113897593283721 0.12884250969623393 0.10766253288262999 0.021188156662898278 0.4899316318206282 3.5230295112758956 0.013328699955038516 0.0724961338631037 0.060454660768693595 0.07722613212140764 0.03238832858883271 0.45603251607178097 0.016614881916067217 0.025735450275949937 1.3931345506996544 0.045890116398999876 5.882808471938449 0.06280261043218788 7.005394816734758 0.08699343948647052 0.09148248046060875 4.3996657266086245 0.03820285763613635 0.24030172760342203 0.11390999183488783 0.17217177928347205 1.237001703934246 0.04632357302759311 0.02254018446048224 4.838312726600508 7.188258196345332 5.732335463305913 0.014345912117595788 6.076692363162165 3.2902706892390383 0.07674518323542835 0.038976926297335554 4.542320615613697 4.696717711003439 1.2154368967774285 0.06771028024476039 4.1699378257588515 0.03434942591438174 1.3091274510726805 6.472488499200816 0.07707246262897205 1.6250896320943395 0.015154298308537961 0.060427744260182194 0.21220829283021259 2.9135327003563862 4.556474934290089 6.574691925955318 0.033056194239454544 0.019687047995509892 0.04892497966018145 0.5869828155729031 0.12386993255171846 0.09766153733566543 0.18328433742167174 0.27333097628354147 0.022273218846350994 0.144439902216811 0.8892089781594504 2.404247389270595 0.13629046018483423 2.8123443142360816 4.831286135320134 0.013802543507063954 0.21306009977362647 7.052525350957492 0.26965727611185764 6.050190836560569 0.3273620418215983 0.048613465648379074 0.01772448882218459 0.027405888378153113 9.377158594158255 2.056154966380185 0.09193326301363712 12.94257381136623 2.2423859408427154 0.09731140267663435 0.08879144513258923 0.030365347433775534 0.04166905739300289 0.5151075988087415 0.2696967067377904 0.5017432766429596 0.028530855915764656 0.1567495319113939 0.10610297412471295 0.07245097051713072 0.23229703885481126 0.12363579974026898 0.18437970101296716 0.019097472697821815 0.7623657435417328 5.052708648587812 0.00912742293346688 0.27809404874821125 0.025881108538727177 1.1088275553460807 0.0344811161191107 0.04137287321886048 0.061301124409937506 0.05161948953420689 0.20273931800302733 0.06133172642364645 0.07981672193418737 0.40235303607922224 0.7787757213455697 0.010465280929613973 7.756064732307644 0.16285705564912192 0.05949881738621653 4.467968575245521 0.012680984116022729 0.009566451045479103 0.36452930937768296 0.07481852780349918 5.720750976560042 0.012853549594877145 0.22130287126834514 3.8947574189135867 0.021000544742049147 1.984499506670692 0.31372042199405614 0.2004860018836028 0.22263397692744022 0.18227817448550987 0.9997181889675407 0.03360953213961042 18.893268982931374 0.4128582823250831 0.03139404930982023 0.12627645168600823 0.08618594042360367 0.18676963771525099 0.2777337475320497 0.1009185961243684 0.009628987413209923 0.1496273145962004 0.5820518874485956 3.1430418493173002 0.08697006922356337 0.07840077010527143 0.04605596946147092 0.025354668663145077 0.8988816618963931 0.0349694068327425 7.190877904208018 13.780121382534675 1.4273853420071647 0.39768248798155287 6.502973082258953 0.0077379421538704835 0.04931326401450717 0.013022032140886926 0.28115862431155514 0.02362505517900207 3.8979985280018665 0.012209162629480037 0.19723657235688224 0.14703069967151025 0.012116768611483955 6.175636698218624 5.171926471236037 0.4202854634865987 1.1358220797762943 0.04335869042791663 0.09017627995526416 0.1893944157065148 0.029418474135010968 0.030192837856147844 1.347917627907182 0.35297350349300266 0.10809362764715034 0.15974062112248397 0.23672159583461463 0.12776086432876405 0.05247641858635819 0.012110503213204428 0.13344458537970882 2.2236019778282294 0.7695200112272624 0.17965802229180897 0.40184085607072206 4.025833533134433 0.02833161338281926 7.882412752467191 0.7551814363123398 0.008602911809820429 0.025785133508652414 4.879696115656382 4.550273147744868 0.46621295423631565 0.6130128332887798 0.011557630640923598 4.517635256279512 0.030496725281229063 0.06263054178724324 1.0636804186605076 1.4866322573108672 0.02427087506412901 3.5831052432331787 0.33793872627526655 3.5620186676566514 0.04453301019796543 8.5729061823248 1.159835729241314 0.8987290429843964 0.01934996222396054 0.05413905770401368 0.43127136052915754 9.966580591191766 2.208863477751715 2.354912627290247 0.7465765105568785 2.1902789195255763 5.1240740791036234 0.012657788242067699 0.011089540057380658 0.012635673408947872 4.278068440010622 0.9583833420241764 0.04978665991406324 0.00870427694075796 0.27263593581081674 0.18367017222206705 0.12433711474306584 2.0400444950532073 2.0395883250069122 0.008409168364152312 0.9725249724083739 0.6011708078318357 0.5581738937966586 0.3769330287314919 0.26188898700340957 0.17719286919307067 0.11990325638633899 0.08464331359475619 0.04899214499573397 0.081725457448326 0.014342444646126938 1.3851373754679566 10.963422232984184 2.7349653980999187 6.771740583171942 0.011053337906914337 1.3965654013790283 0.009920853331932575 0.08005858721003915 0.131076095992033 0.017907179517846483 1.5010099734564777 0.011910097626141947 2.3325832268425075 6.508051745802291 0.06964455461908761 6.330158356945364 0.08199006054843148 0.03534528367834543 0.31227957335613615 0.010599868571063816 0.13673438865861956 2.6053778415699753 7.935822723104778 1.8961410355209183 0.22728772653566287 0.3543651939945324 0.011448349519399471 0.03776602047864439 0.009277492211577002 0.46539607331848326 6.965637078450432 0.022313743669263524 10.453200258752199 0.14004128006708788 0.09567822854307861 0.20708139928814892 0.3125304082185128 0.025272080984003513 0.10398319228289013 0.6706297161228331 0.37458001325069284 9.481198017414354 0.47422203737202046 0.3224898572361509 0.2194796347613746 0.1486086474445861 0.10090909658766156 0.039641649942361724 0.15407715165628677 0.05509418750437144 0.010755410451105053 0.18394242918053003 0.9919171226360262 0.06499275259550236 0.06530708084140938 0.038868331005094195 7.517417450707349 7.545207990828689 0.055300743437252005 0.11886819780581642 0.16529054162829873 6.89709886507561 0.2365666339082662 0.17269808872166864 0.051367905436694415 0.010203505452790184 4.006535616639171 6.747222948626868 0.024367377841172308 1.8897575345892148 0.05827298718459102 0.007971276061864135 0.920491727662729 6.4965789024632095 0.013289567164423728 0.6109163323920438 0.13624570361602 3.434381281127687 6.684669212471754 0.09248859144403335 7.4968393629466945 0.141247044110576 0.00885238603728718 0.10981511256197277 0.021546169406707078 0.6620969071936673 0.2022728319434861 6.51327408586564 0.07396791185716069 0.012446920155665226 5.9460154539459165 1.314178181048792 7.164209880391307 0.03286044972534845 5.583338434112124 3.264011650074215 0.25171896895100493 8.21970511957474 0.05681985177339517 0.011972936119637397 0.028118496376976533 0.10037878570813824 9.638661873798133 0.013653522230009948 7.218000767851516 0.016444289222849347 3.0530614616157865 0.013607944412571004 2.3947091770401197 0.013213521793309606 0.011814751298195916 1.650852036249231 0.5465355297515954 2.0665956997230435 1.6136821150088154 0.012441217401123179 0.20444240170845943 0.07031870165715429 4.070127703053821 0.008913051166827753 0.01194849304995409 0.29664343604711063 1.4638677963478632 5.769090292803118 0.7003698034751483 0.7450691727745935 0.03116490474333958 0.238445825585186 0.17972670736947213 0.38817197209286414 0.011919100958255076 0.11622953137715948 0.08048975915013326 0.17192094765041002 0.25519565161750357 0.5978238421012634 0.037721471340843374 6.242665138119027 0.015289577298360325 8.700106807114102 0.09563773920332266 0.37742507773873846 0.13830443654793972 0.049295973996842525 2.799262447636024 0.01978493444539412 0.052774062290156735 7.393457017990822 0.022883039722608956 0.6943156449008459 0.06909346692886494 0.02986926920721688 8.622834702784013 0.19407381486164138 8.053987209074764 0.011605318267792451 4.558585904194095 0.0103902426049878 0.029219193910687724 4.711545060849628 0.8278682796938389 5.50626091616479 0.01741990322294831 5.766720826316735 0.0327710512582705 0.012457642846498933 0.6494058071937924 1.9917063249146056 1.8651861232896254 1.6500425409094144 0.038519549348457936 5.1660862714111255 0.20840088037968146 3.6455902084258076 0.024852885620227663 0.018950332004540278 0.012321813819669448 8.779044070880769 6.613560861861431 2.4403820683355226 0.044938623074146686 0.07500309191725055 0.17399588405526617 1.0695201482382635 3.9597577261463366 6.384174839646667 4.77630159583213 2.0878629906930284 0.014667522942315518 0.010309014726533672 0.8222939118701503 0.018709885146537604 0.07686727884961464 2.628841848268252 0.04616832267414234 0.031406074712089255 0.14285325872182833 0.050926850236294945 5.026132255848124 0.5103165862790102 0.028067454662347495 2.8241652647749085 1.0365353456536912 5.442747001232066 0.012137587161628988 0.07321758442615019 3.611951122814737 4.22780764929328 2.0514519455649594 0.04934630537126183 2.0563221468041935 0.5592774888629485 0.018525294538971622 0.019677038520923465 0.011777064413669418 6.731574830570528 2.852659986072815 2.033433711393483 1.7524322407137956 0.7851379995273623 0.09623249347322688 0.05680891254941226 0.3741158353455578 0.1764154267930459 0.01088140691841569 0.2078162691870648 2.072701521818492 0.029046818825676276 0.8015828022784274 0.8028689985531869 0.02743477048841761 5.51455070396