# vtk DataFile Version 2.0
Really cool data
ASCII
DATASET POLYDATA
POINTS 5120 float
0.0 0.0 0
100.0 0.0 0
100.0 10.0 0
50.25 10.0 0
50.25 5.0 0
49.75 5.0 0
49.75 10.0 0
0.0 10.0 0
0.5000000004713866 0.0 0
1.000000000927485 0.0 0
1.500000001363928 0.0 0
2.000000001715368 0.0 0
2.500000002054665 0.0 0
3.000000002393964 0.0 0
3.500000002774895 0.0 0
4.000000003277256 0.0 0
4.500000003692882 0.0 0
5.000000003976668 0.0 0
5.500000004274332 0.0 0
6.000000004780162 0.0 0
6.500000005285994 0.0 0
7.000000005791824 0.0 0
7.500000006297656 0.0 0
8.000000006803486 0.0 0
8.500000007309318 0.0 0
9.00000000754453 0.0 0
9.500000007717295 0.0 0
10.00000000820231 0.0 0
10.50000000919386 0.0 0
11.00000001005358 0.0 0
11.50000001089247 0.0 0
12.00000001160647 0.0 0
12.50000001222332 0.0 0
13.00000001261813 0.0 0
13.50000001320723 0.0 0
14.00000001448328 0.0 0
14.50000001538463 0.0 0
15.00000001655659 0.0 0
15.50000001749263 0.0 0
16.00000001844256 0.0 0
16.50000001885125 0.0 0
17.00000001942646 0.0 0
17.50000002026536 0.0 0
18.00000002147896 0.0 0
18.50000002276195 0.0 0
19.00000002303186 0.0 0
19.50000002330177 0.0 0
20.00000002411291 0.0 0
20.50000002470549 0.0 0
21.0000000253501 0.0 0
21.50000002582124 0.0 0
22.00000002645197 0.0 0
22.50000002704107 0.0 0
23.00000002832406 0.0 0
23.50000002920459 0.0 0
24.00000003004349 0.0 0
24.50000003088239 0.0 0
25.00000003206824 0.0 0
25.50000003379531 0.0 0
26.00000003552239 0.0 0
26.50000003724946 0.0 0
27.00000003755407 0.0 0
27.50000003846583 0.0 0
28.00000003923187 0.0 0
28.50000003918259 0.0 0
29.00000004102069 0.0 0
29.5000000416202 0.0 0
30.00000004290318 0.0 0
30.50000004300656 0.0 0
31.0000000420691 0.0 0
31.50000004118022 0.0 0
32.00000004132176 0.0 0
32.50000004149453 0.0 0
33.00000004170198 0.0 0
33.50000004287395 0.0 0
34.00000004384817 0.0 0
34.50000004249437 0.0 0
35.00000004244509 0.0 0
35.50000004239582 0.0 0
36.00000004245755 0.0 0
36.50000004329645 0.0 0
37.00000004513455 0.0 0
37.5000000477498 0.0 0
38.00000005036505 0.0 0
38.50000005220315 0.0 0
39.00000005304206 0.0 0
39.50000005353401 0.0 0
40.00000005333207 0.0 0
40.50000005421954 0.0 0
41.00000005567601 0.0 0
41.50000005740308 0.0 0
42.00000005913016 0.0 0
42.50000006085724 0.0 0
43.00000006258431 0.0 0
43.50000006431139 0.0 0
44.00000006408864 0.0 0
44.50000006464304 0.0 0
45.00000006637013 0.0 0
45.5000000680972 0.0 0
46.00000006982427 0.0 0
46.50000007155137 0.0 0
47.00000007327843 0.0 0
47.50000007472796 0.0 0
48.00000007472724 0.0 0
48.50000007551063 0.0 0
49.00000007675892 0.0 0
49.50000007837843 0.0 0
50.00000007921737 0.0 0
50.50000007611497 0.0 0
51.00000007266216 0.0 0
51.50000007051736 0.0 0
52.00000006870559 0.0 0
52.50000006549217 0.0 0
53.00000006532495 0.0 0
53.50000006340217 0.0 0
54.00000006157653 0.0 0
54.50000005975088 0.0 0
55.00000005792525 0.0 0
55.50000005615513 0.0 0
56.00000005402418 0.0 0
56.50000005272938 0.0 0
57.00000005175028 0.0 0
57.50000004992467 0.0 0
58.00000004809904 0.0 0
58.5000000455934 0.0 0
59.00000004519715 0.0 0
59.50000004296908 0.0 0
60.00000004114344 0.0 0
60.50000004036905 0.0 0
61.0000000388123 0.0 0
61.50000003797199 0.0 0
62.00000003731208 0.0 0
62.50000003570157 0.0 0
63.00000003389675 0.0 0
63.50000003122457 0.0 0
64.00000002933822 0.0 0
64.50000002551418 0.0 0
65.0000000194697 0.0 0
65.50000001766836 0.0 0
66.00000001634231 0.0 0
66.50000001490875 0.0 0
67.00000001295126 0.0 0
67.50000001159053 0.0 0
68.00000000965386 0.0 0
68.50000000539964 0.0 0
69.00000000128068 0.0 0
69.50000000200856 0.0 0
70.00000000029395 0.0 0
70.49999999907897 0.0 0
70.99999999758295 0.0 0
71.49999999571567 0.0 0
71.999999994433 0.0 0
72.49999999486944 0.0 0
72.99999999363362 0.0 0
73.49999999042018 0.0 0
73.99999998851476 0.0 0
74.49999998793812 0.0 0
74.99999998650452 0.0 0
75.49999998433195 0.0 0
75.99999998407449 0.0 0
76.49999998046903 0.0 0
76.99999997858791 0.0 0
77.49999997992639 0.0 0
77.99999997841302 0.0 0
78.49999997601142 0.0 0
78.99999997594827 0.0 0
79.49999997767536 0.0 0
79.99999997940243 0.0 0
80.49999997943296 0.0 0
80.99999997760733 0.0 0
81.4999999745049 0.0 0
81.99999997152742 0.0 0
82.49999997199166 0.0 0
82.99999997233094 0.0 0
83.49999997405803 0.0 0
83.99999997578509 0.0 0
84.49999997678707 0.0 0
84.99999997698411 0.0 0
85.49999997662951 0.0 0
85.99999997813454 0.0 0
86.49999997747813 0.0 0
86.99999997647127 0.0 0
87.49999997564485 0.0 0
87.9999999738192 0.0 0
88.49999997199359 0.0 0
88.99999997016793 0.0 0
89.49999997110397 0.0 0
89.99999997227594 0.0 0
90.49999997108868 0.0 0
90.99999997217738 0.0 0
91.499999974182 0.0 0
91.99999997525684 0.0 0
92.49999997841331 0.0 0
92.9999999807649 0.0 0
93.49999998216586 0.0 0
93.99999998337596 0.0 0
94.49999998384015 0.0 0
94.99999998456803 0.0 0
95.49999998665594 0.0 0
95.9999999888132 0.0 0
96.49999998808393 0.0 0
96.99999998926977 0.0 0
97.4999999914687 0.0 0
97.99999999325128 0.0 0
98.4999999933824 0.0 0
98.99999999655279 0.0 0
99.4999999981827 0.0 0
99.99999999999999 0.5000000006396631 0
100.0 1.000000001299887 0
100.0 1.500000002317897 0
100.0 2.000000003487696 0
100.0 2.500000004137077 0
100.0 3.000000005358917 0
100.0 3.500000006945049 0
100.0 4.000000007906681 0
99.99999999999999 4.500000010498953 0
100.0 5.000000011460584 0
100.0 5.500000009022157 0
99.99999999999999 6.000000007850081 0
100.0 6.500000006348403 0
100.0 7.000000002851798 0
99.99999999999999 7.499999998487827 0
100.0 7.99999999873822 0
100.0 8.499999997583487 0
100.0 8.999999998597158 0
100.0 9.499999999107754 0
99.50249999664918 10.0 0
99.00499999876271 10.0 0
98.50749999530431 10.0 0
98.01000000040158 10.0 0
97.51249999884101 10.0 0
97.01499999819632 10.0 0
96.51750000018497 10.0 0
96.01999999953335 9.999999999999998 0
95.52249999699089 10.0 0
95.02499999584315 9.999999999999998 0
94.52749999523319 10.0 0
94.0299999934887 9.999999999999998 0
93.5324999924381 9.999999999999998 0
93.03499998875768 10.0 0
92.53749998517786 10.0 0
92.03999998264233 10.0 0
91.5424999825597 10.0 0
91.04499997932336 10.0 0
90.54749997866136 10.0 0
90.04999998153818 10.0 0
89.55249997951961 10.0 0
89.05499997562407 10.0 0
88.55749997417101 10.0 0
88.05999996892585 10.0 0
87.56249996670954 10.0 0
87.0649999651871 10.0 0
86.56749996280423 10.0 0
86.06999995614703 10.0 0
85.57249995610951 10.0 0
85.0749999505278 10.0 0
84.57749995115991 10.0 0
84.0799999490754 10.0 0
83.58249994831624 9.999999999999998 0
83.08499994748769 10.0 0
82.58749994242991 10.0 0
82.08999994481754 10.0 0
81.59249994848538 10.0 0
81.09499994708784 10.0 0
80.597499943796 10.0 0
80.09999993969228 10.0 0
79.60249994018211 10.0 0
79.10499993698046 10.0 0
78.60749993380307 10.0 0
78.10999992986937 10.0 0
77.61249992909634 10.0 0
77.11499992722001 10.0 0
76.61749992855293 10.0 0
76.11999992753704 10.0 0
75.622499928183 10.0 0
75.12499992864855 10.0 0
74.62749992538446 10.0 0
74.12999992733147 10.0 0
73.63249992597903 10.0 0
73.13499993379288 10.0 0
72.63749993446315 10.0 0
72.13999993679872 10.0 0
71.64249993910654 9.999999999999996 0
71.14499993902395 10.0 0
70.64749994084953 10.0 0
70.14999993420616 10.0 0
69.65249993689218 10.0 0
69.15499993857205 9.999999999999998 0
68.65749993687265 10.0 0
68.15999993893418 10.0 0
67.66249993663806 10.0 0
67.1649999371383 10.0 0
66.66749993844344 10.0 0
66.1699999432059 10.0 0
65.67249994241897 10.0 0
65.17499994397048 10.0 0
64.67749994295106 9.999999999999998 0
64.17999994384685 10.0 0
63.68249994625879 10.0 0
63.18499994575982 10.0 0
62.68749994432067 10.0 0
62.18999994695464 9.999999999999998 0
61.6924999500223 10.0 0
61.19499995449505 9.999999999999998 0
60.69749995735798 10.0 0
60.19999996026607 10.0 0
59.70249996208818 10.0 0
59.20499996359457 10.0 0
58.70749996309563 10.0 0
58.2099999659447 9.999999999999998 0
57.71249996743375 10.0 0
57.21499996891936 10.0 0
56.71749997135385 10.0 0
56.21999997508937 10.0 0
55.72249997649861 10.0 0
55.22499998164448 10.0 0
54.7274999841882 10.0 0
54.22999998632081 10.0 0
53.73249998912996 9.999999999999998 0
53.23499999151503 9.999999999999998 0
52.73749999652731 10.0 0
52.23999999229871 10.0 0
51.74249998848641 10.0 0
51.2449999934588 10.0 0
50.7474999992378 10.0 0
50.25 9.499999999293099 0
50.25 8.999999997909656 0
50.25000000000001 8.499999995624155 0
50.25 7.999999996044826 0
50.25 7.499999995424663 0
50.24999999999999 6.999999997562707 0
50.25 6.499999996925198 0
50.25000000000001 5.999999997536689 0
50.25000000000001 5.499999999518613 0
49.99999997773051 4.999999999999999 0
49.75 5.500000000741595 0
49.75 6.000000002142386 0
49.75000000000001 6.500000001270688 0
49.75 7.000000001804115 0
49.74999999999999 7.500000002059986 0
49.75 8.000000002437291 0
49.75000000000001 8.499999998521153 0
49.75000000000001 8.99999999830865 0
49.75000000000001 9.499999996968576 0
49.25249999786197 10.0 0
48.7549999973858 10.0 0
48.25749999407857 10.0 0
47.75999999293629 10.0 0
47.26249999277931 10.0 0
46.76499999289642 10.0 0
46.26749999384968 10.0 0
45.76999999350534 9.999999999999998 0
45.27249999177671 10.0 0
44.77499999060667 10.0 0
44.27749999031091 10.0 0
43.77999998939067 10.0 0
43.28249998829694 10.0 0
42.78499998627341 10.0 0
42.28749998489519 10.0 0
41.78999998481454 10.0 0
41.29249998253426 10.0 0
40.79499998166953 9.999999999999998 0
40.2974999819844 9.999999999999998 0
39.79999998116129 10.0 0
39.30249998198269 10.0 0
38.80499997961915 10.0 0
38.30749997822706 9.999999999999998 0
37.80999997613414 10.0 0
37.31249997439162 9.999999999999998 0
36.81499997273237 10.0 0
36.31749997263785 10.0 0
35.81999997124576 10.0 0
35.32249997026999 10.0 0
34.8249999698424 10.0 0
34.32749996920663 10.0 0
33.82999996670431 10.0 0
33.33249996713021 10.0 0
32.83499996547442 9.999999999999998 0
32.33749996451255 10.0 0
31.83999996458456 10.0 0
31.34249996385859 10.0 0
30.8449999633061 10.0 0
30.34749996205277 10.0 0
29.84999995949494 9.999999999999998 0
29.35249995697874 10.0 0
28.85499995397682 9.999999999999998 0
28.35749995227942 10.0 0
27.85999994906238 10.0 0
27.36249994887418 10.0 0
26.86499994735372 10.0 0
26.36749994535619 10.0 0
[...]
CELL_DATA 4888
SCALARS flow double 1
LOOKUP_TABLE default
0.5361280766799236 0.4958750377088121 0.6745863302689237 2.735223794030024 0.63290165665726 3.6053471041416234 0.5771333498023197 0.0027882275419654923 0.024577651823148663 0.37108284461880275 0.039880692757565894 0.8546313530098294 0.004201639345363723 6.121249464295076 3.2558075100930397 0.280679548834688 0.012320624686792406 0.800643715990432 0.06419213721330524 5.219191779328642 0.43056455509353186 5.924399952258098 0.729985848971973 0.015343051081371581 0.03185522194924223 0.4693901949492171 0.3310972187052897 8.181721151860641 0.8913680095120203 0.014605981403137642 8.227382389476281 1.5755498742258833 4.79970159885002 0.5864349752867475 13.612803930590767 1.8316936799694614 9.435241692923077 0.2507242529293277 3.1871692220243006 1.0122780616616243 28.545337422200326 8.979913561548921 10.42311295292002 0.020983661364351945 0.4532663325216719 11.598621045795607 0.01882755469522792 0.10744106679836739 2.1367190032094956 0.06943624257336665 3.642836877449076 0.9250305361198096 0.2195922811373062 0.2267452567689828 0.005420447668024812 11.13072317594026 23.884161542169053 11.554141250386666 0.4351105026472254 0.7912035907122604 12.943185835675632 0.0751236343044714 0.015616967628614819 0.016139579988127796 4.416036015595168 0.09544729097806733 0.01294129513252148 7.087982721195408 0.08826107213870589 24.294494765175095 0.7923883856183085 0.5376904325353038 5.246071119395374 26.135621574358062 0.016810114316629363 0.3970106158142231 3.5125230477101623 7.717609458304415 1.2155382990945642 0.02381502335285968 0.81773192307384 0.014752177658165841 1.7586929018937023 0.02649419264431728 1.3243640272300203 2.6226970795108935 0.004916892990551383 0.023276235882137956 1.1844811788056737 0.11016353929880648 0.17945806868778064 1.6389741458965723 0.016050614285646237 6.732190532712229 0.005986481245875692 11.964102670165476 0.031596197890546046 26.815042090352993 0.028367566322915493 3.8521134189620865 3.2344785210675537 0.024772162357268923 0.06741486505733962 0.08134908010777128 0.3804015239880374 0.07884499562291039 5.649113620346981 0.18116531570995537 0.01781285847025144 1.0623277618606708 1.8548142410803738 0.1535327374308701 0.2097548369648986 0.7122164616228801 0.8378882331282912 0.5070605624795633 1.8878706994128842 0.5640234781142507 17.74094617413953 0.26681818999965906 8.894548361559748 4.4843774092581405 0.042610971260675506 0.08506380256048528 6.291505680871478 0.029240899394813915 1.774094773839524 2.824953096458101 2.034984480127956 0.40641910090060224 7.3956791522470215 8.7190307495383 0.8823640400568161 1.1895874353280471 0.01883270864444271 0.24135604687976583 2.245875874890687 0.038846223561522494 21.723245498765106 0.11482174945792967 0.9621101687809385 1.7486281962882848 2.6138668692114444 1.734119718355063 0.017785390014661093 9.91381593475495 1.4640376554823211 0.30568280245403645 2.6112525660367583 0.2607932765876587 0.12155055688184033 0.16307633325631876 5.4575682712544795 3.1956247087971636 2.013995752852807 2.5830442534206073 13.794871585840735 0.034231984111933254 1.0345716026528442 13.686994469358252 0.19083871838316105 4.350732426863019 0.10410930486908182 0.012905511879211386 0.0074868443362489405 11.821626221910554 0.008773017630063032 0.25584576283363064 0.9263936710016779 5.657120974848078 0.015430920140049709 1.692075021784871 1.3869863151107409 12.082360596848376 10.908823376951178 0.013069619091987776 2.093347833914158 0.019445235890964852 0.013068967770979123 1.9936216493163874 0.027097351939064856 0.5174851330251493 4.116549999252505 0.1405169796198436 11.669091308245116 0.08914264915770574 1.2147438836904128 0.43525172655884764 0.015395449357956406 5.961670563960016 0.025755757094035166 8.05840969318923 2.2617364754303986 6.588324078502161 0.039258497553244676 0.6865255497368362 3.0156553386293554 0.20709191509100747 0.078241828188455 0.014704786865797933 31.70485265925181 1.1997202209102351 0.015039114683651147 16.73795049757222 0.223217267463908 0.4023160735764733 7.5954596252137945 2.548572690196132 10.927169113799033 2.2412702458032867 20.832676217284476 1.9745005424397941 1.9166752824060767 0.08535668497877474 2.5932236796805532 9.432382159164614 2.422019178628433 0.008374423567883758 10.583270571869447 0.011486419177318567 8.48867853436968 1.5062803001172285 0.04618011675539126 4.853647424129375 0.06056292320315277 1.2813978560288808 2.967011371934864 0.08810835458094778 1.01139211213408 0.10128370403353931 1.671478533069386 0.01636157443974325 11.07122061832766 13.95807033082061 6.404119076703608 0.10454882655424984 9.647122160090587 5.145036938400804 13.594301371600583 2.9629813826188176 0.3582823503881403 3.7445740654084685 0.9816424929270784 0.7804595558572813 4.942948943496377 0.2063412117073641 3.5192250706124697 0.09583701426770246 12.227372566186318 9.254624928391685 0.06727757213915801 6.815482087288229 0.6367628230196606 4.41874505348975 4.413525333392784 0.013353236664479438 0.06240887001221735 5.024599820300011 0.23398120586778154 3.4396833447157213 8.90936750909426 1.2847281908009642 0.0100438495972473 0.2260581813731254 2.361894961525621 1.0464882046852146 0.7658703000836479 0.013784571560493201 0.0577610229484611 10.748318670406112 0.14027243215963286 3.335192230337483 0.026105802822723623 4.194149252771762 1.7495488243754738 3.4620760319080905 2.4700383377211708 0.0122819739742119 4.177836719093722 0.01119126060687328 0.010815629667678824 9.452530950837463 0.018463497371399226 0.018835783758767637 2.492254253781185 4.343326576709615 0.04139976014701528 4.589497178852668 0.27350190267918606 1.5041720203331947 0.057749872860534644 5.821767096023724 5.2540048511717785 0.1877351391989235 0.03862500148277178 0.2651388000337051 0.6092599167771704 0.6733553683296944 0.3576891884599351 4.104470497385414 2.312375147608167 1.5410043516046934 2.071307805005719 3.9222844134723016 0.01932878657932117 11.782230585199656 4.260142257801963 10.772470228120234 9.072888747794346 0.01157260666397558 0.07292862990164324 4.466929636578247 12.076491438988468 0.8997358726383751 2.985402149370686 5.667177980474125 0.3013523392785366 3.2164458114998187 0.006595329536065474 0.013370573945248125 1.596229851879704 1.9498890509023261 0.28294071639990775 2.6994860189811516 11.173651327353378 0.018174455455435626 1.4046199043668366 13.408089922583834 0.0726131868488267 0.02041886980990282 1.493713555973783 5.329635538851748 7.622074482868818 0.026870714758666404 17.797561344957636 0.9172343910664008 13.986633738719592 0.45083297678061335 15.2292190347931 28.053879925263473 3.394721958007925 7.6247123230369604 3.7851361449849437 6.035433794106416 20.403753557202588 2.8840806663569354 3.8986538392865806 1.6276161691235562 0.17365724974084584 2.457530359718094 3.150549331998505 13.3669769667575 4.286380815363462 9.678900945242155 12.389046389895976 3.738392426216592 0.023203623165926036 0.004119953168294887 11.423756446171852 5.9262208380377 10.216314025876718 2.219611831786724 0.6904713635995987 3.2509433008241966 4.563572052710119 6.9358375804247485 1.7215742320165037 13.3032657511054 0.6314894840430385 12.934769568204468 0.021747611889307236 9.19086471644808 13.252141489714061 6.553424795829678 12.10765561946615 3.599497769801561 0.22543340001391507 19.940853101582984 0.9631544997691637 6.552621327312638 2.3903134160491795 12.600355896056415 13.569427588854927 0.0924178289859214 2.5866525047217954 0.013537745429712748 8.00678569024231 0.004120059359200272 13.122283563774433 5.363168053317284 2.1856818116766585 14.902212755348343 3.3515756684365896 0.32882933835421974 0.24217020478475798 2.977705086430385 0.0169056273691687 0.021853792211387762 1.1258535841409019 9.39291054222643 1.3904894727435055 0.002155053103338657 12.573213690533175 3.366499089488649 0.02784720964021134 3.577630599781502 3.7403891043867477 3.9010656678404345 16.668505612204807 3.286750187961201 1.0090540002223871 2.0275502416516304 0.5386623456505161 1.6331277339568382 8.873062211210538 2.2140639484812072 7.576998602479983 19.507617965037355 25.70034570583717 1.753545627645757 1.1812952927997624 0.8605335234738465 8.352476314882006 14.279218777385127 13.056524715813328 2.0532721614883727 4.78287056932308 5.171911796474922 0.11565970012375354 18.58179233484495 0.937590933038864 6.071561014977336 1.2631549029400202 4.90397965924349 31.03945432472252 4.792578692135015 1.4311005464768694 2.8880477494647536 0.8590330627374492 1.4619286288891213 3.0837561806374683 0.5828668367308305 5.577229636016312 0.10677229593317115 2.44655740148531 0.30028117809399646 5.125593952619077 1.8952288836922513 7.258882172422828 21.277947916440393 19.885752924021123 2.414561033643954 0.46350957685753397 0.005159134141375281 0.008890020602886562 0.6257558175308439 4.553035492488147 0.32495746345247833 0.5488766408059333 0.0042065723735084165 11.520289982050278 1.0923247570899834 0.2635068779349805 3.041176171810176 0.4311870932806145 13.53226251577681 10.735713688852625 0.02569191598952604 11.27214374532446 10.946659027553668 14.283875706960332 1.2366827743934816 0.739287785718587 0.9682761113758361 11.98596097316831 11.269054745098286 12.163483594376087 11.376578343409562 0.3365644270023311 6.5790680956649314 0.7977814677111817 6.074465733342107 0.28736818811685494 0.2090045929144412 17.56783305631985 1.2741976532341557 6.773873001100135 6.080644507344974 4.058505310959651 0.15082884000485391 3.219791299010915 13.181367100738054 0.22564097473538441 9.629296999412581 2.7276152148331616 0.5111093842472977 7.905552208476278 8.850911481444687 23.548217749815596 3.512557382275995 0.19357322801986615 0.5402462632326646 0.16480016068786094 17.58777440830511 0.3975460628545925 1.00993677871632 12.398968395760129 0.14079857074412414 0.562967696602898 0.012782596684755265 0.07551495894251158 19.640471367262393 1.7692089207109825 5.391409038527877 3.548991128246997 16.252402096298535 0.8694423740625578 5.4577029167820035 0.018239632520262915 0.11124750762517017 0.36721274591891606 0.10608865491794002 0.15263301274441826 6.330858884899641 3.2313850629138283 0.13050967271080033 8.438089530950178 8.510762090672992 0.26451264952761905 0.09506137751544065 15.458564288615936 7.583520767876643 2.9862373233468955 1.093257722140509 2.3492601099308863 2.5776485512569955 12.637105959337532 0.2409474731063784 0.00625426359276772 0.10324796790070914 3.544642100319235 0.07505444518961991 0.587840331160435 12.147942070791823 11.685267018134143 0.1785574966701149 0.01792360702463853 8.665864205218389 19.097231561747723 0.08864287472913508 0.06392273711922834 13.670352828410287 7.5372135306458725 0.1933020509865017 12.871404245735482 0.9312182791071189 0.022546993664745833 14.276588161993168 10.595548021404833 2.5451451686020747 0.1302050013884798 0.7430848636245615 7.787176792999758 1.555905945301376 9.032637585629052 9.088364369726172 0.12071574172723788 0.3667286852006078 9.91397085055364 0.31100757384065 1.5826623820797274 8.542053936176444 0.19168756444289906 4.504920690419897 0.06987958195983478 9.1064644791463 0.2441159164458617 0.05057712626459663 18.163269090174463 1.361097560966186 6.793095356221543 0.08788142959213495 0.625568797328157 10.465896749757054 0.20886914473784324 0.5001461442862728 8.574131935792515 12.380327292931826 0.14815438312072274 1.1983991855442793 0.08174562187544651 7.846982028897307 0.1392294218807314 7.4100146786728125 7.112353284736521 0.4294891299211222 3.4097564148982564 0.16519314792363246 0.05926397768302709 0.34533068034291303 2.6338851860068058 5.136404450141358 0.024573775520202127 0.1412377095120099 0.020110920875352996 0.13512582862896486 0.01929262493060244 8.606962097697435 0.11169657473476255 0.2846789798862184 0.2255099949417474 0.018741370319156608 0.05524661336494286 1.833403178069976 7.585419933161091 6.585467923975406 6.541210818765673 2.965179315598657 0.09558584247084835 0.03986077730024986 0.13063633831896446 0.8150870093821568 7.067390132380703 8.088847242013744 15.483065890137444 10.24667242312303 0.017651908834339404 0.1255041917658109 4.626246725841067 5.617528161253934 0.17862917468974238 0.15232163296733953 5.651848672974837 5.694869932527892 6.809859870421395 0.12037468134167872 3.231535196995484 8.556234053328659 7.087581385626808 7.258011269142509 5.14244901598808 15.612694650214976 0.0756440293011924 8.637555560058003 0.07013812841054823 5.813090694976268 6.577832625021505 6.254171566129413 0.05998513885133664 0.10287175941700437 8.291556012460962 0.06467139280806208 0.05097495265298536 0.08122643699165633 0.014965662893068183 6.399743195126617 0.05030332078501877 0.06940118043641992 0.038409604872797896 0.022811328907705045 0.05114256243664329 9.18814203809771 10.939721036644176 0.04104359450253453 0.04753206840806266 34.50474667637349 7.029931619752153 0.03383747674138598 0.04303374503758721 6.844790838520764 6.538286794977986 0.021387087935750757 0.04394980316301895 4.839171946537639 0.022633360350903554 0.05217320139075869 8.222890636044589 0.046735223761735833 0.05476160161431186 4.140854604532376 4.955183046529966 2.977816840978621 3.8998275879575246 0.03679538693086276 0.049487617128405874 3.538182898999073 5.04581756814875 0.03131756435135855 4.415183346983503 1.8714999212832026 0.017584075367622954 4.568208098662506 0.014481178613429836 9.408320693555698 8.11490905455266 5.96386726688989 6.44810889111575 4.266814992175123 0.024463289407305747 11.69850246917446 6.571272357360584 8.249393956435602 7.630023806983489 0.020919913348392032 0.0035863484305707744 0.0034084834049333233 0.015675523360005956 0.02662557867042999 13.451126542305934 0.05693929941268848 7.708083566475591 0.017757833685552657 0.028790710095100182 0.018091364118764882 5.569630665092222 6.235636055974256 11.62811146350493 0.03246483801275898 9.789510006399649 0.028180000713676483 0.03043004178800329 2.798018800933171 0.4724141708361071 9.934290173047211 0.016388091719550676 0.02599299263158281 0.019094874244311433 11.03626607754098 0.007376172013671542 4.879513658540452 0.016019215468568732 12.516064636814484 13.286146000897437 0.017556834337868452 0.019226792442633787 1.3879875187150956 0.9182690625667469 22.795770885838703 7.851582830644375 4.86026415077517 4.873090665628112 0.02462511321390261 0.014732812137250336 6.659286635025798 8.167963742903458 0.014799481150357908 3.74086947343278 4.7238376219819935 0.012750061270946527 1.3342794172112087 7.314776575371947 0.013635382858510294 0.054502654806782624 6.644790490311194 11.24788714011143 0.02073762338313086 4.490145837233806 0.02137364275049573 2.7930486873290588 6.934091177600866 2.6547909891456802 0.019074651224477924 4.753605979604149 4.175296893337908 4.057220400257301 4.985714155641981 1.6366887511214796 1.2328868131134452 8.017242034859692 5.248312715403491 0.06466463896601232 0.12409205190724204 5.373626128304189 5.26700867799283 1.9439778207609615 4.1342041864159444 3.6441379603908683 4.0162567391351285 0.012471027809176695 1.5387122278272558 7.459015789634367 7.513162439582998 1.927534217840006 0.01723276462803273 0.014318609983419921 3.8556514414911907 2.4076742430328957 5.60539997885095 0.06658424816296858 2.9250446586490138 1.726113589107801 0.3192106458839626 6.5063253861934225 0.018371746845702013 0.12600205121413047 0.01090081416978425 0.024589361527233018 0.3635275541705874 2.5601839075881623 2.72402647629174 0.03441842841723056 2.0506380597402525 0.0845549749527687 0.015340517159900518 5.067359468612173 0.037687771896668866 0.09622010863276807 5.373857238797784 0.019283883774126643 4.409589103375846 2.2656551542087975 7.771194418005145 12.174521379631463 18.963848722762027 0.013879839958383107 3.3860497285141493 0.0171273179748937 0.1969128450028487 10.05403670420854 5.61985800042835 0.5842629929756129 0.07010914714696413 3.2851314892993204 4.327543950235286 0.17747715868613032 0.011630229464488754 5.875420410340053 1.0318253765419105 0.022436344815849718 0.13222920768179458 0.02601909976160776 4.287741117636748 0.0890232181314571 6.74147555392954 0.016340727629497828 0.07433961422490781 0.32837527766465263 0.009616579549593194 0.013929465162261352 0.0397637597659175 0.32930054635175043 7.0451881456316645 0.216638394836019 0.031864997245811585 0.05666878756215313 0.020513667411257267 0.03691213511031553 2.3052670365554073 0.10725546966872555 2.3469284059406554 0.3841972555112997 0.22061362290115458 0.3035974415722913 0.21322824802144286 0.012844502162559994 0.1404935171833465 0.47059941318223725 0.010115519811935779 3.770131939164025 0.01996768517063827 0.7112478053895991 4.12943215308077 0.02773142128301689 0.5050975917364688 4.480074549861293 0.0123896997509911 0.017564886076457006 0.02367990013215817 0.09434727706078505 0.04817234213026561 0.04223028689960668 0.07954325107283781 2.3944885265824323 0.17386074809704957 0.03712182757026665 0.05734017704042812 0.023993521020357324 10.370640998171254 1.6029520167690139 0.017068032188376138 6.1651890814139 12.656600343865568 6.1518034426373385 0.030746215166079477 2.0216617685269602 0.012900981127347009 0.6014995840424605 0.550809580311891 0.168276641478912 4.045920301029145 0.01815841660351961 2.8330500886942698 0.08088215843427375 0.1770331817019953 0.03702398973706148 0.011555124583482436 0.013094414050182239 0.057971589760717326 0.13562634500314258 0.05971939477323212 0.03365329196817044 0.02175222165826316 1.3903832346649514 0.11288053250123338 0.7680155877475141 0.28061713834020746 0.14577188091213503 0.012151796527328567 0.24331551063149964 11.286424064944617 0.37235957979186396 0.05081542521219201 5.210497842815467 0.3842052152034626 0.07179203812826422 0.2812345110711301 0.01325356831171588 0.2499282180971423 0.042171909675597995 0.33393887964756985 0.2002610190977594 2.9916975567964292 0.2593022386328682 0.06295378656306888 2.325012564078548 1.2926239454011499 2.62778538348488 0.019842458537058728 0.030332140960199296 0.44862749510853794 2.85228212908857 0.33910745127025754 3.2273564691414016 0.012858966832483078 0.6220664034457577 0.37491654151834697 0.03767767635851258 0.01784986736828812 1.5883441466010597 0.6151967790183228 11.867292588822023 0.49093350657688295 0.09977919716771434 0.3543329617061561 0.018094750604115948 0.2297019781078712 0.20898547622404676 3.5541832661938173 0.022961916372181923 3.3107903703440305 2.4667878191906647 0.026735654312598778 1.1489458301373752 7.535310376289588 4.492866665108332 2.2881469138493156 0.01767572340121626 0.9784765546185268 0.07393920420642643 2.1814787607001542 3.7506704657156202 3.7696667297324615 0.1576561577390532 0.019708072405983296 0.17892074341761924 6.715226942002817 0.11829588756316585 0.17309228062891815 0.07494613386830769 0.0310643813558625 0.16408388873438484 0.03426250909911689 4.902778387813324 0.03385321922073106 0.05348530557615362 1.0519742659765063 3.212311645204129 0.010498418160154177 0.5251241703040284 3.717442196785651 2.214419705124157 0.01673625215968523 0.036534136547475914 1.4779616290806799 3.0326980988675936 0.013235475446370869 8.058560900070498 4.882109907374236 2.5303621373040484 0.05625836835050765 2.9977692822679987 0.01678506013149861 1.038849159937593 0.01399435386172196 1.0739206441348157 0.01430112804425714 0.01607394701556344 0.3254219574972788 0.18172260491418793 0.034142540450850425 5.8309708172737365 0.6229847623237815 1.8648584674838156 0.08400948684173142 1.0501237687182348 0.020883851582843962 2.0361889632355887 1.1106808648245654 1.8550691722717425 0.42043939467125746 0.18827546439666484 0.812871930376234 0.38597116262596043 0.09037042243692364 0.026316972009326305 0.04068077547164554 0.20677578595734172 0.8519783628955195 0.04662459308146998 0.041636117367975865 9.24290992514648 0.04793984106280483 0.09446671700930306 0.07116752016050913 0.10497776059219667 2.220832862806566 0.16747119224758675 0.05912551091623041 11.450740906620203 11.639311420059215 2.4813905039137905 3.3511239427614434 2.4400677176224432 0.6697000137059941 0.023829602138742537 2.6296440188843153 0.011321993466117125 0.013547938445967238 2.3862937833450983 0.06584598065635584 0.0974119