# vtk DataFile Version 2.0
Really cool data
ASCII
DATASET POLYDATA
POINTS 4886 float
0.0 0.0 0
100.0 0.0 0
100.0 10.0 0
50.5 10.0 0
50.5 5.0 0
49.5 5.0 0
49.5 10.0 0
0.0 10.0 0
0.5000000004713866 0.0 0
1.000000000927485 0.0 0
1.500000001363928 0.0 0
2.000000001715368 0.0 0
2.500000002054665 0.0 0
3.000000002393964 0.0 0
3.500000002774895 0.0 0
4.000000003277256 0.0 0
4.500000003692882 0.0 0
5.000000003976668 0.0 0
5.500000004274332 0.0 0
6.000000004780162 0.0 0
6.500000005285994 0.0 0
7.000000005791824 0.0 0
7.500000006297656 0.0 0
8.000000006803486 0.0 0
8.500000007309318 0.0 0
9.00000000754453 0.0 0
9.500000007717295 0.0 0
10.00000000820231 0.0 0
10.50000000919386 0.0 0
11.00000001005358 0.0 0
11.50000001089247 0.0 0
12.00000001160647 0.0 0
12.50000001222332 0.0 0
13.00000001261813 0.0 0
13.50000001320723 0.0 0
14.00000001448328 0.0 0
14.50000001538463 0.0 0
15.00000001655659 0.0 0
15.50000001749263 0.0 0
16.00000001844256 0.0 0
16.50000001885125 0.0 0
17.00000001942646 0.0 0
17.50000002026536 0.0 0
18.00000002147896 0.0 0
18.50000002276195 0.0 0
19.00000002303186 0.0 0
19.50000002330177 0.0 0
20.00000002411291 0.0 0
20.50000002470549 0.0 0
21.0000000253501 0.0 0
21.50000002582124 0.0 0
22.00000002645197 0.0 0
22.50000002704107 0.0 0
23.00000002832406 0.0 0
23.50000002920459 0.0 0
24.00000003004349 0.0 0
24.50000003088239 0.0 0
25.00000003206824 0.0 0
25.50000003379531 0.0 0
26.00000003552239 0.0 0
26.50000003724946 0.0 0
27.00000003755407 0.0 0
27.50000003846583 0.0 0
28.00000003923187 0.0 0
28.50000003918259 0.0 0
29.00000004102069 0.0 0
29.5000000416202 0.0 0
30.00000004290318 0.0 0
30.50000004300656 0.0 0
31.0000000420691 0.0 0
31.50000004118022 0.0 0
32.00000004132176 0.0 0
32.50000004149453 0.0 0
33.00000004170198 0.0 0
33.50000004287395 0.0 0
34.00000004384817 0.0 0
34.50000004249437 0.0 0
35.00000004244509 0.0 0
35.50000004239582 0.0 0
36.00000004245755 0.0 0
36.50000004329645 0.0 0
37.00000004513455 0.0 0
37.5000000477498 0.0 0
38.00000005036505 0.0 0
38.50000005220315 0.0 0
39.00000005304206 0.0 0
39.50000005353401 0.0 0
40.00000005333207 0.0 0
40.50000005421954 0.0 0
41.00000005567601 0.0 0
41.50000005740308 0.0 0
42.00000005913016 0.0 0
42.50000006085724 0.0 0
43.00000006258431 0.0 0
43.50000006431139 0.0 0
44.00000006408864 0.0 0
44.50000006464304 0.0 0
45.00000006637013 0.0 0
45.5000000680972 0.0 0
46.00000006982427 0.0 0
46.50000007155137 0.0 0
47.00000007327843 0.0 0
47.50000007472796 0.0 0
48.00000007472724 0.0 0
48.50000007551063 0.0 0
49.00000007675892 0.0 0
49.50000007837843 0.0 0
50.00000007921737 0.0 0
50.50000007611497 0.0 0
51.00000007266216 0.0 0
51.50000007051736 0.0 0
52.00000006870559 0.0 0
52.50000006549217 0.0 0
53.00000006532495 0.0 0
53.50000006340217 0.0 0
54.00000006157653 0.0 0
54.50000005975088 0.0 0
55.00000005792525 0.0 0
55.50000005615513 0.0 0
56.00000005402418 0.0 0
56.50000005272938 0.0 0
57.00000005175028 0.0 0
57.50000004992467 0.0 0
58.00000004809904 0.0 0
58.5000000455934 0.0 0
59.00000004519715 0.0 0
59.50000004296908 0.0 0
60.00000004114344 0.0 0
60.50000004036905 0.0 0
61.0000000388123 0.0 0
61.50000003797199 0.0 0
62.00000003731208 0.0 0
62.50000003570157 0.0 0
63.00000003389675 0.0 0
63.50000003122457 0.0 0
64.00000002933822 0.0 0
64.50000002551418 0.0 0
65.0000000194697 0.0 0
65.50000001766836 0.0 0
66.00000001634231 0.0 0
66.50000001490875 0.0 0
67.00000001295126 0.0 0
67.50000001159053 0.0 0
68.00000000965386 0.0 0
68.50000000539964 0.0 0
69.00000000128068 0.0 0
69.50000000200856 0.0 0
70.00000000029395 0.0 0
70.49999999907897 0.0 0
70.99999999758295 0.0 0
71.49999999571567 0.0 0
71.999999994433 0.0 0
72.49999999486944 0.0 0
72.99999999363362 0.0 0
73.49999999042018 0.0 0
73.99999998851476 0.0 0
74.49999998793812 0.0 0
74.99999998650452 0.0 0
75.49999998433195 0.0 0
75.99999998407449 0.0 0
76.49999998046903 0.0 0
76.99999997858791 0.0 0
77.49999997992639 0.0 0
77.99999997841302 0.0 0
78.49999997601142 0.0 0
78.99999997594827 0.0 0
79.49999997767536 0.0 0
79.99999997940243 0.0 0
80.49999997943296 0.0 0
80.99999997760733 0.0 0
81.4999999745049 0.0 0
81.99999997152742 0.0 0
82.49999997199166 0.0 0
82.99999997233094 0.0 0
83.49999997405803 0.0 0
83.99999997578509 0.0 0
84.49999997678707 0.0 0
84.99999997698411 0.0 0
85.49999997662951 0.0 0
85.99999997813454 0.0 0
86.49999997747813 0.0 0
86.99999997647127 0.0 0
87.49999997564485 0.0 0
87.9999999738192 0.0 0
88.49999997199359 0.0 0
88.99999997016793 0.0 0
89.49999997110397 0.0 0
89.99999997227594 0.0 0
90.49999997108868 0.0 0
90.99999997217738 0.0 0
91.499999974182 0.0 0
91.99999997525684 0.0 0
92.49999997841331 0.0 0
92.9999999807649 0.0 0
93.49999998216586 0.0 0
93.99999998337596 0.0 0
94.49999998384015 0.0 0
94.99999998456803 0.0 0
95.49999998665594 0.0 0
95.9999999888132 0.0 0
96.49999998808393 0.0 0
96.99999998926977 0.0 0
97.4999999914687 0.0 0
97.99999999325128 0.0 0
98.4999999933824 0.0 0
98.99999999655279 0.0 0
99.4999999981827 0.0 0
99.99999999999999 0.5000000006396631 0
100.0 1.000000001299887 0
100.0 1.500000002317897 0
100.0 2.000000003487696 0
100.0 2.500000004137077 0
100.0 3.000000005358917 0
100.0 3.500000006945049 0
100.0 4.000000007906681 0
99.99999999999999 4.500000010498953 0
100.0 5.000000011460584 0
100.0 5.500000009022157 0
99.99999999999999 6.000000007850081 0
100.0 6.500000006348403 0
100.0 7.000000002851798 0
99.99999999999999 7.499999998487827 0
100.0 7.99999999873822 0
100.0 8.499999997583487 0
100.0 8.999999998597158 0
100.0 9.499999999107754 0
99.5049999930559 10.0 0
99.00999998472403 10.0 0
98.51499997952507 10.0 0
98.0199999696944 9.999999999999998 0
97.52499996612954 9.999999999999998 0
97.0299999645145 9.999999999999998 0
96.53499996522055 10.0 0
96.03999996674189 9.999999999999998 0
95.54499997334253 9.999999999999998 0
95.04999997538431 10.0 0
94.55499997558033 10.0 0
94.05999997309793 10.0 0
93.56499996983146 10.0 0
93.06999996916358 9.999999999999998 0
92.57499997027556 9.999999999999998 0
92.079999968265 10.0 0
91.5849999697239 10.0 0
91.089999967925 9.999999999999998 0
90.59499996837084 9.999999999999998 0
90.09999996955564 10.0 0
89.60499996697264 10.0 0
89.10999996623194 10.0 0
88.61499996050904 10.0 0
88.11999995971978 10.0 0
87.62499995771617 9.999999999999998 0
87.12999995666664 10.0 0
86.63499995188751 9.999999999999998 0
86.13999995073043 10.0 0
85.64499994841458 10.0 0
85.14999994377767 10.0 0
84.65499993743032 10.0 0
84.15999993079153 10.0 0
83.66499992737585 10.0 0
83.16999992444244 10.0 0
82.67499992649115 10.0 0
82.17999992470956 10.0 0
81.68499992448231 9.999999999999998 0
81.18999992178136 10.0 0
80.69499992059654 10.0 0
80.19999991761802 10.0 0
79.70499991469848 10.0 0
79.20999990775438 10.0 0
78.71499990331176 10.0 0
78.21999990182162 10.0 0
77.72499990334991 10.0 0
77.2299999002881 10.0 0
76.73499989743797 10.0 0
76.2399998974952 10.0 0
75.74499989766 10.0 0
75.2499998969574 10.0 0
74.7549998974622 9.999999999999998 0
74.25999989988907 9.999999999999998 0
73.76499990254841 9.999999999999998 0
73.26999990576978 10.0 0
72.77499990848463 10.0 0
72.27999991575139 10.0 0
71.78499992082547 10.0 0
71.28999992447359 10.0 0
70.79499993018602 10.0 0
70.29999992951815 9.999999999999998 0
69.80499992913826 10.0 0
69.3099999304237 10.0 0
68.81499992858662 10.0 0
68.3199999309996 10.0 0
67.82499993042889 10.0 0
67.32999993157554 10.0 0
66.83499993416545 10.0 0
66.33999993398677 10.0 0
65.84499993094579 10.0 0
65.34999993019466 10.0 0
64.85499993242375 10.0 0
64.3599999312875 10.0 0
63.86499992574508 10.0 0
63.36999992793082 10.0 0
62.87499992740178 10.0 0
62.37999992842699 10.0 0
61.88499993093365 9.999999999999998 0
61.38999993285746 10.0 0
60.89499993532596 10.0 0
60.39999993733306 10.0 0
59.90499994099155 9.999999999999998 0
59.4099999427315 10.0 0
58.91499994551918 10.0 0
58.4199999485116 10.0 0
57.92499995125418 10.0 0
57.42999995512087 10.0 0
56.93499996173538 10.0 0
56.43999996482144 10.0 0
55.94499996420562 10.0 0
55.44999996909582 10.0 0
54.95499997310653 10.0 0
54.45999997487074 10.0 0
53.96499997534603 10.0 0
53.46999997604515 10.0 0
52.97499998080522 9.999999999999996 0
52.47999998202131 10.0 0
51.9849999864015 10.0 0
51.48999999024735 10.0 0
50.99499999880478 10.0 0
50.5 9.499999999293099 0
50.50000000000001 8.999999997909656 0
50.5 8.499999995624156 0
50.5 7.999999996044826 0
50.50000000000001 7.499999995424664 0
50.49999999999999 6.999999997562709 0
50.5 6.499999996925198 0
50.5 5.999999997536689 0
50.50000000000001 5.499999999518613 0
49.99999998206729 5.0 0
49.5 5.500000000741595 0
49.5 6.000000002142385 0
49.5 6.500000001270688 0
49.49999999999999 7.000000001804115 0
49.5 7.500000002059988 0
49.5 8.000000002437291 0
49.50000000000001 8.499999998521153 0
49.5 8.999999998308647 0
49.50000000000001 9.499999996968576 0
49.00499999989281 10.0 0
48.50999999901542 10.0 0
48.014999996209 10.0 0
47.51999999837084 10.0 0
47.02499999696609 10.0 0
46.52999999590827 10.0 0
46.03499999453474 9.999999999999998 0
45.53999999492022 10.0 0
45.0449999945563 10.0 0
44.54999999478217 10.0 0
44.05499999354395 9.999999999999998 0
43.55999999203512 10.0 0
43.06499999186548 9.999999999999998 0
42.56999998903132 10.0 0
42.0749999864747 10.0 0
41.57999998648895 9.999999999999998 0
41.08499998480664 10.0 0
40.58999998298555 10.0 0
40.09499998231978 9.999999999999998 0
39.59999998017951 10.0 0
39.10499997856658 10.0 0
38.60999997762327 10.0 0
38.114999976104 9.999999999999998 0
37.61999997422048 9.999999999999998 0
37.12499997346796 10.0 0
36.6299999703285 10.0 0
36.13499996927762 10.0 0
35.63999996729694 10.0 0
35.1449999655938 10.0 0
34.64999996311352 9.999999999999998 0
34.15499996180938 10.0 0
33.6599999625071 9.999999999999998 0
33.1649999607554 9.999999999999998 0
32.66999995695326 10.0 0
32.17499995529176 10.0 0
31.6799999531029 10.0 0
31.18499995182999 10.0 0
30.68999995138975 10.0 0
30.19499995007172 10.0 0
29.69999994852819 10.0 0
29.20499994717546 10.0 0
28.70999994446965 10.0 0
28.21499994341184 9.999999999999998 0
27.71999994235403 10.0 0
27.22499994108805 10.0 0
[...]
CELL_DATA 4654
SCALARS flow double 1
LOOKUP_TABLE default
0.16386411650519758 0.016558868563525366 0.016386952647573578 2.0887973604639587 2.082256433089857 34.81406572311692 6.964550367883398 6.7566050681436005 6.173802681373487 6.178574268944516 0.20409299760443964 0.20196645103438426 73.74880312270943 3.576038036926126 12.215909420291622 12.214254626335382 2.0226018116057265 0.30257617987238494 59.534128509874165 1.3106517264652906 1.6128655656119673 14.308980333052666 0.032363037465357694 11.758403780272666 59.12119177681381 1.6265600587246054 0.2744959319313212 34.970925791853716 43.029974047160636 43.38138961244714 61.688154393222035 22.60475811447122 1.078124866532813 1.0789844480105644 0.11359566447408141 0.11352403858426734 37.247079022996125 0.21554304622817153 48.924174079212115 49.034702896751625 4.131458745378898 0.18861013898249515 0.18926786050533093 0.1914027764564141 0.19031342895393447 88.83568852851963 26.256520994642308 26.244583742781458 78.08249397935457 85.33728855443195 52.96866287933066 24.698583438340208 0.871002570927752 0.870892781868512 69.63644213707633 2.755638756978896 75.70612820963312 0.16543650108035346 0.16551870007817598 103.55863067775508 1.0082246229379155 4.82738118871979 0.397712974821655 0.39802170297877815 81.00799585379868 91.30546122899153 73.78165969967387 61.69134583818441 30.558230262708935 7.624512268272064 7.702787255815953 2.476778527384564 0.536433932594027 0.536487284006838 2.4177437136848132 2.4128735234064953 40.75683559727278 15.116185549201557 0.29144643051639235 153.75513701058313 1.3930721407640896 9.32987755415408 9.331281369362943 0.13285542033029787 0.1327276035158527 14.187305905181125 14.188097820809736 1.3901479387888935 3.6420254090523883 65.74575008495458 2.3321469928764205 0.12389613109596262 0.12422281013403885 0.46483809184358416 0.4648074592513125 0.06097502579059148 0.06028846176821018 45.68200328475013 0.7211426465415424 0.7264021648838853 0.9880856010277754 0.07574573251109412 0.07574649364365783 0.10477485694661587 0.10468131472966977 0.22601909136244847 0.22033801586852644 0.6936645222662299 0.693681466609518 32.10247000198891 1.9996540808474528 0.16412850159936188 0.31375917767140327 0.31344357745676854 0.07000059978435287 0.07000676364409132 0.34744857602419915 0.3455788654724493 1.5735268114234775 0.10785049092482157 3.393961865477889 3.5496277072784133 1.8774148095749827 5.4067208886368086 37.1672543104007 0.10760632278001507 42.65250188813776 0.0924085719016502 48.101566439156024 5.899319014369379 23.414841288628086 23.42256744320869 43.35652847943763 32.42016317804096 0.09232519692143715 33.892549849609146 4.489971570692035 8.132847335513402 8.125140253231814 2.7835614207474224 14.330687870327736 33.68424955934226 0.5826837878586438 0.5896727389928345 0.19047658060901643 0.18577671548239344 15.753022496596115 15.755294217073576 39.164665788608524 39.1113766690724 20.046287327877373 2.7725283582533757 0.039098765792744974 0.046576527588743484 0.04688657708479271 0.07945758835505233 2.5023574092187615 0.07946120730567587 0.37929974765493807 0.37667244370570135 4.592416448854107 0.7159510077157737 0.715982472176278 11.110215545403888 0.3592655515078446 1.5672565766530067 0.2155245311082957 10.64631891627996 0.23052567820876482 0.9239775070268573 0.9239963141256035 0.35908805495696833 25.329438871403948 25.31190489712311 16.472319966734737 0.021542509651664172 0.021084256966987663 26.689755518210564 26.64783922494463 65.9469212555411 0.03998921311170919 70.47225160744664 70.49913688169632 27.437879576388813 94.88110790083479 4.620793526298506 4.564209898089876 0.4026949948791649 0.4027489764569284 10.645471473101955 27.83522265220752 27.62744642010756 0.04154233419283739 65.36624348428415 35.08582770839301 0.23117782316983407 64.36114699389134 0.21791752077219056 0.21811433668019617 0.20484975949478249 4.9719530620177235 1.4869957921220653 1.29879525154351 1.353359808337793 5.428581699979156 76.3630157213729 76.39044225032602 1.311706938265596 1.3332729565364059 33.86576015686158 0.25413435925994377 0.2573437699964619 3.1399309080191475 3.1428126739707594 0.10051179147040662 0.1005586185851408 4.172931212210632 0.5583767440469521 0.5581450495928666 0.24132405637659216 1.668200659596757 62.232245188633016 152.64273731353063 4.933475960060165 4.601225873247511 5.33126555388978 1.5389915469102917 1.3668347226417359 64.34303621385301 29.332629831658302 1.4077984409808368 1.3090540115267382 25.39907822149643 25.350545696667854 27.980998420821628 0.3541524130522767 30.113586073075634 0.3538005606863097 1.351537750027053 1.4390951184611669 0.12020507407424931 58.120912386958366 58.13909435294107 30.624790643123326 10.631457211951453 0.09614883667186556 0.11004726251084233 0.09519547412110299 1.8878117880268508 1.8834913662509976 10.64519523333585 92.77704914366839 11.356904904041528 92.7693573554034 0.051542002329885525 0.051386368207278446 0.12213807402831092 0.1122176495903133 0.5351875684374108 0.5364061955781335 13.715655874181584 13.691949992158085 22.761592636922078 0.575633531545912 0.576046029718128 37.78026265881706 0.19817397652437227 0.07232175930335011 0.07232561007126703 0.10835469242728572 65.14729007917178 4.9188758126285945 1.3190066743109947 0.09254924929574244 0.0928025650123527 11.367164519784849 1.4434136728154219 1.4679972327324358 0.18955755339954222 11.882730977399438 11.706557692211218 3.6117125025451577 3.834794562636925 5.089668481084455 30.15501151587513 2.5056766702299127 0.19087716856621734 64.93654265592886 3.8014402519017256 0.08817791270959802 0.08801146997532025 0.19329156828808342 0.5042007513106795 4.051839913127627 5.252990604045924 0.5062962997419348 0.23773844104088815 11.909194492337406 0.22521961964269419 1.3973751290464642 0.1793653736797508 0.10934239170305882 0.623600792945665 0.623628460250905 64.65478379137515 0.10255078576632747 5.490479213631626 11.668589783254 12.389128460886294 12.195878289872601 0.09804162413505263 0.09199979411467968 13.110298408612547 3.8622611158805285 0.7379467084818692 0.7379159361821936 12.977930079552804 12.991158161464547 11.978683728102217 3.6144066456123944 3.614695718280603 11.509277247751957 0.09223404056854953 0.1580064469591819 39.67636201803252 39.90090646709563 0.6491076027933345 0.6492121888999384 1.826126337024913 0.08571107351396552 1.8944853400028703 3.6325442032963577 3.599303730781616 5.536933682497032 0.16678688469784797 0.09995616031022667 48.3536167747865 18.39112123404625 18.285016922581963 0.22430518158823307 0.2226771091528027 0.2360254897221262 3.1938196803104852 48.9918206590301 55.5835358553032 1.493457324302049 8.250495745215158 0.3404058568703539 0.15540270308636517 8.21818438160168 0.113948060543306 1.2228414133856187 1.234616787415778 59.936346460654015 3.1648641325942846 3.1915609892703 65.89984970232058 0.10213740691211198 4.351797753354634 69.6235315404428 2.766639055852497 0.11296661260687152 55.86347520468105 0.12475902609487773 0.12655673028725298 0.09754678669177842 0.09744212561270585 0.5101969603735295 0.5116466681426717 10.865112298673585 1.3421411285072875 27.756172802924276 27.749259662537977 7.299559714192718 4.467698512017049 0.6213827331829862 0.6213740341554616 0.6887190912007384 0.10475027730254456 0.24116039977339326 1.1480892487242882 1.1532624385729677 56.43489939207079 56.7791939970456 14.391905590401025 1.409095849783298 2.996708952278376 0.09883731024085239 0.31085657238273046 0.3142239501184221 2.0100050890570262 0.4791810215036606 58.33559156186309 0.10803905992437197 17.394473004757746 17.240339822214622 0.6891541867457702 35.170995475118524 2.9790226949262433 16.97668569844064 0.06916777932510043 0.15607507649368343 0.34016100355123385 0.4962427923674234 0.4824047698403001 5.060037148424205 0.49664815507311366 1.0589730724443165 1.0555664702846994 0.495602369075902 0.4480516818606807 38.397912701759104 1.3817989541332698 18.711915343984387 55.17002421493146 10.07723860481761 10.08167014671831 32.92194829292331 5.721660714885747 32.80517048971139 9.497249515328052 9.546536345869713 35.10257853224018 14.315165986400185 6.3536576629456265 29.250754374031548 0.10641262971604559 0.11359403404075032 3.7937665098252444 3.822933570981827 0.06341117307369148 0.07759430660332779 2.787305682965232 3.364725987165041 0.06906121182097993 6.0266415637886315 17.108836283809936 1.302485195337707 5.551803504891095 0.06679503573773259 0.10216384385217324 15.802468707630519 20.27260981093485 8.965353435927932 2.8511380080064974 5.13787985244633 53.54704328091444 33.7103228459774 0.1099109451738539 63.84468269759137 2.949497024635683 21.92246777819999 0.08166521600198592 0.08174830745120258 5.568741144115034 0.4676966505694414 0.23458527791742823 0.09589864841082185 15.322229333610297 61.4703369540471 36.666394529889374 0.08394429357849632 3.0365426850669883 29.604987792852583 0.09568486389471469 2.880149299172786 33.12242473433021 0.08417452727876415 0.44077160810146976 1.8701676838383563 0.1689171613438196 0.11734714370708536 0.11890380450680713 0.4229331291135807 1.1168632938815322 0.16932174093838556 0.17131083093983648 1.1161912721488174 16.776814531535816 1.6256101168335029 0.06527652928847975 33.98837832005409 60.42961542707244 33.57037580810382 3.2350144218617443 3.255585673678636 57.979765013656454 0.0863670536244936 0.21083822480938907 3.402425442547934 40.77152034970578 1.1811773262101202 0.5207464258686949 2.465862040066536 5.584261870921269 2.46652850503337 0.3693385380585405 0.3661747725015065 4.548178093556477 0.06479363382207241 2.588540640448641 23.43883870746551 0.4594929446887847 1.1758107488352045 2.451685332129894 77.81027449804624 17.83044748058586 4.986044154302636 0.10125076175253571 0.9632652390143411 0.06470566234330308 0.962771987592367 5.647245467705506 2.466220797514431 2.48082670164121 0.3708719613052182 0.3670150702777809 15.600507061326981 15.492000858713538 1.8339529373753818 48.77366946270172 7.758211665468431 7.841768780380159 38.79965634979684 14.992779932003211 6.884877780721429 6.921582605562802 31.546766109692324 1.5429941317531923 1.5416227379587006 1.5150501718925795 0.13707753360881847 4.742797313982455 13.009844512042905 5.989838650334666 0.5212382497221265 22.546731837826115 22.796110238205976 0.10582732990527612 0.4874988286291169 0.4875771421412065 8.006132417452003 39.538703063572285 94.18272987426508 94.07912418264114 0.15420957934470683 0.3226825928414098 15.488107693472402 2.7670572605882873 14.284907127668959 0.16162805663045893 0.22646819902940896 24.606851703603688 24.608688438313923 59.57931633427168 59.80828516084803 0.15265802964673614 40.408375523821384 1.012417256162812 0.4216783203450902 0.21659737026554485 1.348201452386225 3.3847030828206424 0.1542228885407844 7.97916925081841 35.64083248531603 35.725095825951485 114.00179271474765 114.26358901261871 2.6367586714352416 2.641508092166968 0.7727065810219624 0.7474250029857511 0.13634749271229696 2.2711048647042 67.00281577036678 67.0163299379924 0.627874995628572 8.943662994296714 9.02594060067525 42.828387534009345 3.3946518825902516 0.08180145915287475 0.1603726865422221 0.16043057468129734 0.08071026144135605 0.08063146834199553 0.14876087055927056 0.1480941444373199 54.85129333802348 0.2096403990253857 49.14081971326196 0.07897899433857049 47.62447665795464 47.7865821177284 30.200831959789394 16.09761381901215 30.45112243581327 4.052033928858526 3.9152535877966557 0.09217464304645885 0.09239128741530386 62.07250978148434 62.26719969970815 12.44868111405876 13.006188754134936 0.1554203958830805 0.15549449750306354 36.90563563605009 0.08465624045166498 0.08448728384521036 0.09069401194743403 0.09094668406129469 0.08505715342498522 0.08385470262531625 1.4888879456392 3.6661684084605937 0.3812095237584447 0.29020579954003706 0.08402704732752882 0.08408423507819023 7.23072129836244 7.267812972851849 0.09055013072459445 0.33995666841131456 2.9907856541209776 1.0927155372312356 2.9929572459506555 5.51201148354791 5.754068280175484 47.684177813169626 47.79833830424954 21.354005615284695 0.4557416324296212 0.6659404947131425 0.6659244563110461 5.1349317988661545 0.6777610864440962 0.10872780747835405 0.10940564353847247 14.794615951237645 9.17540685002428 42.48793012213935 41.669553726330754 41.28082529090877 1.3304024833366475 5.557474459585296 0.09671512520676886 42.71397195364188 42.02038464491393 82.98450824494337 82.93962139348608 2.427020005752969 0.5338518767982738 0.034564189822593405 1.0208915552067426 1.02517778227319 20.7238915780453 0.12462127302658174 9.692049044811014 0.14481945630459622 0.14455136445955474 8.984562101206183 13.558271508741754 4.154856473238619 0.26421924350853243 0.265089925537224 3.7586665886223005 0.20325479220507126 0.1186976704088778 0.12349504743617226 32.88022974738855 1.3481659886717063 0.13078466601630426 0.1290768101425936 7.730877952820669 7.6922443825456 44.184169882807296 43.63082849887606 0.1326472425580695 0.13106717747423172 53.73364960885594 41.66408993623473 0.10580076620878416 14.6911994589129 6.077401478635469 38.110752199450914 38.31793479873798 0.13602101424804933 0.1346585303408915 0.13448266871361805 0.13294473346657254 42.89797944688405 42.03966530759917 0.082659176058833 0.08140984909849787 0.08526878822502215 44.287944770458395 0.08944545202884684 0.09002885645203859 8.842941501786301 1.9877449974678516 0.26738976673625114 32.863716090510835 14.947258589867078 14.932080502514431 0.09586375014466075 0.5382475970832882 0.5377041927984786 24.774300558725443 0.9768646683101166 0.9768751003666838 0.08777024884806262 0.17466689418222872 18.835455175564217 1.6630763793586087 1.6116903275818286 0.15622020348224722 0.15595494828901646 18.259995112579464 0.09571816779758803 23.59986509917611 23.844582557044323 20.61018421447205 20.59469393550821 0.1039727016915348 1.4911368296651044 20.436568978603685 20.39527829129218 18.493319253964824 18.240906422066864 16.9492314875784 16.7311548878413 0.05545613624375101 18.676935723568334 18.682248536430865 14.445816441991443 29.00878024540351 7.914811622992967 0.09386657320900765 18.91038777017349 8.138881950368084 8.065490388127833 12.473989561511871 12.499050370748037 7.128762735937554 7.124811108748821 8.055616889715102 0.21247886435959143 2.847541606280002 2.7488464318667605 2.730330041860533 0.9281057228908183 0.9273740053504885 6.33021022559582 0.4297104045777276 0.42432089143176177 0.4178898061763635 0.4234311855031662 6.945569962544949 3.3843949709349235 2.7167324800159665 2.7168831683047774 12.583917776826691 2.2508706076406506 2.2669554443736426 0.41636044257129595 111.58078924118954 36.476888088164976 5.336075421135351 6.260009390279137 1.2365067973095862 1.2413356657234424 3.492275302180147 4.193123043954494 0.38959876165119534 1.784858749976638 2.1752823762453803 2.1907083399234484 0.5960496373873345 0.5961112009802313 0.37815974353505954 1.2556910630752771 0.2898148137447714 1.2583604929792533 0.42423929498759144 19.15292667508337 0.9557716800062224 0.9503104586078375 0.29010722597909866 0.3896163012409606 19.15678308276523 1.2916637326368263 0.10648881120995729 0.3327923062960154 0.31524100410699335 0.2848306195096586 17.33204632027739 5.85439086676263 0.18765536037310468 0.5017105957155943 2.767824943567138 31.631081224925754 0.19214316901852074 0.03548965128131019 10.10196630876389 0.36795232912251913 1.0134636990891859 0.18670167869844245 44.87634543417278 45.44648773369737 0.198548617816874 0.19051848216628217 57.698983060491926 55.853275301725304 19.97879720815508 0.2155772080686542 0.10444698071691327 1.7414128367264454 1.7480104165282977 11.396823126717207 7.077882371470049 19.199711868113834 19.407037922655412 0.089162712551033 0.08888847243036328 3.108743744772304 2.918309863560605 0.12320311926558501 111.56979109721368 2.5660526262725316 2.793380884188361 5.099121089915019 5.469323665092855 8.351427890655929 8.101107343551668 23.849894225478806 8.698269658826039 6.272843094778434 2.2443029853221277 0.5667015032945522 0.5664961191760132 23.293919105813323 1.7342470099430098 1.7847863585335637 3.401434861375025 63.807300955546296 1.802897194036742 2.723920247136088 4.239786455671747 2.7317256862611234 0.41579611675901645 4.688624070575191 83.6492676556388 1.3471653410349382 34.419830043149354 0.13293184266213942 0.16320092773935596 0.09804375331000283 0.18568051430727422 2.6362353703364967 0.14874506910170593 0.14947652575076106 30.14029144689147 50.47506895671427 0.39155232280911056 0.541182312994117 28.347289400527465 28.207680387469967 1.1697412185814227 1.1726076573760569 3.2909418252248583 0.09055689798739228 28.755362617326018 25.156445608913824 24.700391242831135 0.1952691060243452 0.09660403350681698 0.0967124444069941 10.696057813587045 56.694006537993296 0.11642027374431128 2.1138588657353328 1.2725177668640704 0.42178267238770834 5.508406548415343 15.628179298427655 3.5109227654865323 3.518974687373042 0.09475673366760445 51.310999501960836 22.014986057562226 22.34265810116956 0.8566412220264957 0.05310400997794772 0.1595329755637797 0.15959782182244042 43.047589541451785 0.09518605629018971 0.12167333021029768 25.823892139908676 19.212385816588082 0.3635361667137446 16.99644216096239 0.0325267452811007 0.08228606299707263 15.586751188000871 15.84841508375504 18.008832282110568 0.39105517714246724 14.473844257639485 14.546272285533448 4.324745630263367 0.83319876425511 0.17839384676802816 0.19096447231233799 0.0776952181834534 42.27800712937917 0.39809931437586926 0.367177478478875 12.62048618601252 12.619804817763763 20.42526315698931 20.403989932982043 4.415424909444471 25.865937527554426 26.10955361173541 0.40226271644751255 0.3722097282091804 0.11125502084213329 0.9344846978513771 12.45429238447573 12.47274596731046 0.20509335274622206 71.57139657025883 4.019831391759741 4.036630990520147 7.712527305563961 7.720335239659101 0.20422882095113296 0.10149966223098465 0.5590035505028634 0.5590836060996511 0.9292396797852588 0.8176486435192117 1.4934813868078423 1.9477001874244133 2.1010315869970744 0.09645310784116211 0.6126924337859024 0.6125549039848391 25.441981839129912 25.35272816059679 8.664958496509856 0.3906200206779396 6.873919434173536 0.2681265975232286 6.476863322057707 5.849201471365847 6.5654129527325 43.340926832086886 43.81935385509051 6.278609363499096 0.41650387846706644 0.37661313240511923 0.3594722697214316 1.7384256701731597 11.232949343929588 0.5944911448594529 0.5945705419055545 1.778196917669621 0.8854949142943572 28.35738922045426 4.406186738333091 0.11911342052237961 9.599740809838677 9.599146099625157 9.276073410957293 9.367956956077716 4.166687536820907 0.26564523050495864 0.2670902374910962 3.8359034684549758 3.845615903863465 3.396762474404234 4.7157086619956505 2.4781965478136962 3.5123688737938257 1.2768725950013369 1.2734248170552762 0.18839447843133605 0.28330065807883287 0.28570538915029503 0.4230719952272606 1.8478418845126303 1.2604231575114426 1.2627799647347169 0.9780000698920063 0.9586812699968167 1.544233924200555 0.29053255111758153 5.5055539707509755 12.986934408372758 12.98688469970243 39.13695551477221 100.34736811887679 8.231121201493577 8.266319235844437 10.057034986469782 1.0630161922905057 1.0549554736141364 78.56021274917082 77.9951499748464 41.814742555691815 38.55043129530661 6.1112345417522755 0.12804323811334337 0.12852761143653066 0.1395749785206282 51.877833393192944 0.8341774152441075 39.17053399497405 39.01782179516351 3.2280895102291707 0.1378599778287881 23.44512893472721 23.023880923720984 3.275996784518108 0.24641748657719192 0.09154258453497893 0.12767622365675227 0.11832961187699538 0.06208973069411195 24.616602788891164 0.4045293649023666 0.06411318195580726 15.267032321882787 0.10392970412527608 16.047731768356833 37.62854358357977 8.946834173476407 0.08783558493259797 5.178576977143731 21.488611073611494 41.16365387558116 41.51872831771754 0.06828231751403736 0.15961452078270225 0.15787644146082494 3.1154294730224104 2.0321171186533573 0.3019031657765641 1.9981909011827619 1.350382809889125 0.2110129516800962 5.679280267008278 0.4483240494348347 51.