# vtk DataFile Version 2.0
Really cool data
ASCII
DATASET POLYDATA
POINTS 4929 float
0.0 0.0 0
100.0 0.0 0
100.0 10.0 0
50.25 10.0 0
50.25 2.0 0
49.75 2.0 0
49.75 10.0 0
0.0 10.0 0
0.5000000004713866 0.0 0
1.000000000927485 0.0 0
1.500000001363928 0.0 0
2.000000001715368 0.0 0
2.500000002054665 0.0 0
3.000000002393964 0.0 0
3.500000002774895 0.0 0
4.000000003277256 0.0 0
4.500000003692882 0.0 0
5.000000003976668 0.0 0
5.500000004274332 0.0 0
6.000000004780162 0.0 0
6.500000005285994 0.0 0
7.000000005791824 0.0 0
7.500000006297656 0.0 0
8.000000006803486 0.0 0
8.500000007309318 0.0 0
9.00000000754453 0.0 0
9.500000007717295 0.0 0
10.00000000820231 0.0 0
10.50000000919386 0.0 0
11.00000001005358 0.0 0
11.50000001089247 0.0 0
12.00000001160647 0.0 0
12.50000001222332 0.0 0
13.00000001261813 0.0 0
13.50000001320723 0.0 0
14.00000001448328 0.0 0
14.50000001538463 0.0 0
15.00000001655659 0.0 0
15.50000001749263 0.0 0
16.00000001844256 0.0 0
16.50000001885125 0.0 0
17.00000001942646 0.0 0
17.50000002026536 0.0 0
18.00000002147896 0.0 0
18.50000002276195 0.0 0
19.00000002303186 0.0 0
19.50000002330177 0.0 0
20.00000002411291 0.0 0
20.50000002470549 0.0 0
21.0000000253501 0.0 0
21.50000002582124 0.0 0
22.00000002645197 0.0 0
22.50000002704107 0.0 0
23.00000002832406 0.0 0
23.50000002920459 0.0 0
24.00000003004349 0.0 0
24.50000003088239 0.0 0
25.00000003206824 0.0 0
25.50000003379531 0.0 0
26.00000003552239 0.0 0
26.50000003724946 0.0 0
27.00000003755407 0.0 0
27.50000003846583 0.0 0
28.00000003923187 0.0 0
28.50000003918259 0.0 0
29.00000004102069 0.0 0
29.5000000416202 0.0 0
30.00000004290318 0.0 0
30.50000004300656 0.0 0
31.0000000420691 0.0 0
31.50000004118022 0.0 0
32.00000004132176 0.0 0
32.50000004149453 0.0 0
33.00000004170198 0.0 0
33.50000004287395 0.0 0
34.00000004384817 0.0 0
34.50000004249437 0.0 0
35.00000004244509 0.0 0
35.50000004239582 0.0 0
36.00000004245755 0.0 0
36.50000004329645 0.0 0
37.00000004513455 0.0 0
37.5000000477498 0.0 0
38.00000005036505 0.0 0
38.50000005220315 0.0 0
39.00000005304206 0.0 0
39.50000005353401 0.0 0
40.00000005333207 0.0 0
40.50000005421954 0.0 0
41.00000005567601 0.0 0
41.50000005740308 0.0 0
42.00000005913016 0.0 0
42.50000006085724 0.0 0
43.00000006258431 0.0 0
43.50000006431139 0.0 0
44.00000006408864 0.0 0
44.50000006464304 0.0 0
45.00000006637013 0.0 0
45.5000000680972 0.0 0
46.00000006982427 0.0 0
46.50000007155137 0.0 0
47.00000007327843 0.0 0
47.50000007472796 0.0 0
48.00000007472724 0.0 0
48.50000007551063 0.0 0
49.00000007675892 0.0 0
49.50000007837843 0.0 0
50.00000007921737 0.0 0
50.50000007611497 0.0 0
51.00000007266216 0.0 0
51.50000007051736 0.0 0
52.00000006870559 0.0 0
52.50000006549217 0.0 0
53.00000006532495 0.0 0
53.50000006340217 0.0 0
54.00000006157653 0.0 0
54.50000005975088 0.0 0
55.00000005792525 0.0 0
55.50000005615513 0.0 0
56.00000005402418 0.0 0
56.50000005272938 0.0 0
57.00000005175028 0.0 0
57.50000004992467 0.0 0
58.00000004809904 0.0 0
58.5000000455934 0.0 0
59.00000004519715 0.0 0
59.50000004296908 0.0 0
60.00000004114344 0.0 0
60.50000004036905 0.0 0
61.0000000388123 0.0 0
61.50000003797199 0.0 0
62.00000003731208 0.0 0
62.50000003570157 0.0 0
63.00000003389675 0.0 0
63.50000003122457 0.0 0
64.00000002933822 0.0 0
64.50000002551418 0.0 0
65.0000000194697 0.0 0
65.50000001766836 0.0 0
66.00000001634231 0.0 0
66.50000001490875 0.0 0
67.00000001295126 0.0 0
67.50000001159053 0.0 0
68.00000000965386 0.0 0
68.50000000539964 0.0 0
69.00000000128068 0.0 0
69.50000000200856 0.0 0
70.00000000029395 0.0 0
70.49999999907897 0.0 0
70.99999999758295 0.0 0
71.49999999571567 0.0 0
71.999999994433 0.0 0
72.49999999486944 0.0 0
72.99999999363362 0.0 0
73.49999999042018 0.0 0
73.99999998851476 0.0 0
74.49999998793812 0.0 0
74.99999998650452 0.0 0
75.49999998433195 0.0 0
75.99999998407449 0.0 0
76.49999998046903 0.0 0
76.99999997858791 0.0 0
77.49999997992639 0.0 0
77.99999997841302 0.0 0
78.49999997601142 0.0 0
78.99999997594827 0.0 0
79.49999997767536 0.0 0
79.99999997940243 0.0 0
80.49999997943296 0.0 0
80.99999997760733 0.0 0
81.4999999745049 0.0 0
81.99999997152742 0.0 0
82.49999997199166 0.0 0
82.99999997233094 0.0 0
83.49999997405803 0.0 0
83.99999997578509 0.0 0
84.49999997678707 0.0 0
84.99999997698411 0.0 0
85.49999997662951 0.0 0
85.99999997813454 0.0 0
86.49999997747813 0.0 0
86.99999997647127 0.0 0
87.49999997564485 0.0 0
87.9999999738192 0.0 0
88.49999997199359 0.0 0
88.99999997016793 0.0 0
89.49999997110397 0.0 0
89.99999997227594 0.0 0
90.49999997108868 0.0 0
90.99999997217738 0.0 0
91.499999974182 0.0 0
91.99999997525684 0.0 0
92.49999997841331 0.0 0
92.9999999807649 0.0 0
93.49999998216586 0.0 0
93.99999998337596 0.0 0
94.49999998384015 0.0 0
94.99999998456803 0.0 0
95.49999998665594 0.0 0
95.9999999888132 0.0 0
96.49999998808393 0.0 0
96.99999998926977 0.0 0
97.4999999914687 0.0 0
97.99999999325128 0.0 0
98.4999999933824 0.0 0
98.99999999655279 0.0 0
99.4999999981827 0.0 0
99.99999999999999 0.5000000006396631 0
100.0 1.000000001299887 0
100.0 1.500000002317897 0
100.0 2.000000003487696 0
100.0 2.500000004137077 0
100.0 3.000000005358917 0
100.0 3.500000006945049 0
100.0 4.000000007906681 0
99.99999999999999 4.500000010498953 0
100.0 5.000000011460584 0
100.0 5.500000009022157 0
99.99999999999999 6.000000007850081 0
100.0 6.500000006348403 0
100.0 7.000000002851798 0
99.99999999999999 7.499999998487827 0
100.0 7.99999999873822 0
100.0 8.499999997583487 0
100.0 8.999999998597158 0
100.0 9.499999999107754 0
99.50249999664918 10.0 0
99.00499999876271 10.0 0
98.50749999530431 10.0 0
98.01000000040158 10.0 0
97.51249999884101 10.0 0
97.01499999819632 10.0 0
96.51750000018497 10.0 0
96.01999999953335 9.999999999999998 0
95.52249999699089 10.0 0
95.02499999584315 9.999999999999998 0
94.52749999523319 10.0 0
94.0299999934887 9.999999999999998 0
93.5324999924381 9.999999999999998 0
93.03499998875768 10.0 0
92.53749998517786 10.0 0
92.03999998264233 10.0 0
91.5424999825597 10.0 0
91.04499997932336 10.0 0
90.54749997866136 10.0 0
90.04999998153818 10.0 0
89.55249997951961 10.0 0
89.05499997562407 10.0 0
88.55749997417101 10.0 0
88.05999996892585 10.0 0
87.56249996670954 10.0 0
87.0649999651871 10.0 0
86.56749996280423 10.0 0
86.06999995614703 10.0 0
85.57249995610951 10.0 0
85.0749999505278 10.0 0
84.57749995115991 10.0 0
84.0799999490754 10.0 0
83.58249994831624 9.999999999999998 0
83.08499994748769 10.0 0
82.58749994242991 10.0 0
82.08999994481754 10.0 0
81.59249994848538 10.0 0
81.09499994708784 10.0 0
80.597499943796 10.0 0
80.09999993969228 10.0 0
79.60249994018211 10.0 0
79.10499993698046 10.0 0
78.60749993380307 10.0 0
78.10999992986937 10.0 0
77.61249992909634 10.0 0
77.11499992722001 10.0 0
76.61749992855293 10.0 0
76.11999992753704 10.0 0
75.622499928183 10.0 0
75.12499992864855 10.0 0
74.62749992538446 10.0 0
74.12999992733147 10.0 0
73.63249992597903 10.0 0
73.13499993379288 10.0 0
72.63749993446315 10.0 0
72.13999993679872 10.0 0
71.64249993910654 9.999999999999996 0
71.14499993902395 10.0 0
70.64749994084953 10.0 0
70.14999993420616 10.0 0
69.65249993689218 10.0 0
69.15499993857205 9.999999999999998 0
68.65749993687265 10.0 0
68.15999993893418 10.0 0
67.66249993663806 10.0 0
67.1649999371383 10.0 0
66.66749993844344 10.0 0
66.1699999432059 10.0 0
65.67249994241897 10.0 0
65.17499994397048 10.0 0
64.67749994295106 9.999999999999998 0
64.17999994384685 10.0 0
63.68249994625879 10.0 0
63.18499994575982 10.0 0
62.68749994432067 10.0 0
62.18999994695464 9.999999999999998 0
61.6924999500223 10.0 0
61.19499995449505 9.999999999999998 0
60.69749995735798 10.0 0
60.19999996026607 10.0 0
59.70249996208818 10.0 0
59.20499996359457 10.0 0
58.70749996309563 10.0 0
58.2099999659447 9.999999999999998 0
57.71249996743375 10.0 0
57.21499996891936 10.0 0
56.71749997135385 10.0 0
56.21999997508937 10.0 0
55.72249997649861 10.0 0
55.22499998164448 10.0 0
54.7274999841882 10.0 0
54.22999998632081 10.0 0
53.73249998912996 9.999999999999998 0
53.23499999151503 9.999999999999998 0
52.73749999652731 10.0 0
52.23999999229871 10.0 0
51.74249998848641 10.0 0
51.2449999934588 10.0 0
50.7474999992378 10.0 0
50.25 9.499999998865654 0
50.25000000000001 9.00000000042013 0
50.25 8.49999999859189 0
50.25 7.999999996503447 0
50.24999999999999 7.499999996670141 0
50.25000000000001 6.999999994928643 0
50.24999999999999 6.499999992666726 0
50.25 5.999999990925225 0
50.25 5.499999993000118 0
50.25000000000001 4.99999999377397 0
50.24999999999999 4.499999995415179 0
50.25 3.999999996362501 0
50.25 3.499999997830241 0
50.24999999999999 2.999999999428081 0
50.25000000000001 2.500000000440458 0
49.9999999777305 2.0 0
49.75 2.500000000970362 0
49.75 3.000000001853987 0
49.75000000000001 3.500000002303932 0
49.75000000000001 4.000000003274295 0
49.75 4.500000004157919 0
49.75000000000001 5.000000007296685 0
49.75000000000001 5.500000009134408 0
49.75 6.000000010191506 0
49.75000000000001 6.500000007345475 0
49.74999999999999 7.000000005800488 0
49.75 7.500000001653413 0
49.75 7.99999999750634 0
49.74999999999999 8.4999999975226 0
49.75 8.999999997712337 0
49.75 9.499999998162279 0
49.25249999786197 10.0 0
48.7549999973858 10.0 0
48.25749999407857 10.0 0
47.75999999293629 10.0 0
47.26249999277931 10.0 0
46.76499999289642 10.0 0
46.26749999384968 10.0 0
45.76999999350534 9.999999999999998 0
45.27249999177671 10.0 0
44.77499999060667 10.0 0
44.27749999031091 10.0 0
43.77999998939067 10.0 0
43.28249998829694 10.0 0
42.78499998627341 10.0 0
42.28749998489519 10.0 0
41.78999998481454 10.0 0
41.29249998253426 10.0 0
40.79499998166953 9.999999999999998 0
40.2974999819844 9.999999999999998 0
39.79999998116129 10.0 0
39.30249998198269 10.0 0
38.80499997961915 10.0 0
38.30749997822706 9.999999999999998 0
37.80999997613414 10.0 0
37.31249997439162 9.999999999999998 0
36.81499997273237 10.0 0
36.31749997263785 10.0 0
35.81999997124576 10.0 0
35.32249997026999 10.0 0
34.8249999698424 10.0 0
34.32749996920663 10.0 0
33.82999996670431 10.0 0
33.33249996713021 10.0 0
[...]
CELL_DATA 4691
SCALARS flow double 1
LOOKUP_TABLE default
0.7963582041715772 0.8001748325387608 0.023908127772751992 0.35773229425741737 0.11122454651049218 0.11096758093054652 31.395098952443085 0.19466569422573443 0.010868813552259913 0.08989850211660926 0.07634795598243069 1.9266421488711738 0.2561380066777874 1.990174123734565 0.034701853674209776 0.027023412709099796 7.633400740974941 7.754975909756174 5.649883984609151 35.26492438365351 34.520219992062934 5.659265563457884 5.741629551516309 5.741812338321271 14.604208140740532 14.5084998412694 4.89235677591975 4.892206698035324 0.14834303497102258 0.04342432268579685 0.08564166450785199 22.17484282637689 0.08586900035135692 0.05552611225146284 0.016703358405623283 0.016234742322736313 0.2562943452783427 0.17072712084745423 1.803610964561329 0.04355739739288069 21.822737721432745 4.2951806764558915 4.295784214783678 0.010434223159914506 0.0766561197891259 0.33117882437199825 0.1285882773092553 0.12855204912598575 0.41003557362050064 1.1394540457171747 0.014896295040307424 0.18437212553232685 0.18295147763352415 6.13133015706012 6.131472621022477 12.27453812563095 12.284920507729153 2.1709031791344127 2.4310516034566274 0.3112234373690312 0.3092503989927023 0.38346781342661523 2.43118171234919 0.07438451330609339 0.554925552516671 10.686507266814766 1.802049984868901 0.5562515489822257 0.3298967955550393 16.063141390905898 0.0031891975878120277 0.009059788035031721 0.5673428856681528 0.009057554721266613 0.0347448951955238 0.03470732734317049 0.005492154479954271 0.07822390452520911 0.01033312953619842 0.019658582117395712 0.3406926804107687 1.2475895153447785 0.019662050405943966 0.0010864074593760508 0.001087754628692874 0.9845941075420718 9.613955618018258 0.013700483255508418 9.615087353010608 0.9813733241472153 0.6004039918846811 1.5840708168408577 0.5983288459905173 25.21321878054202 0.06642933942235486 0.014432028119183574 0.03941205086920012 0.024753894173936676 2.4244730486377475 0.05192688052384695 2.258232846800293 0.039207224755388896 0.09884123560728465 0.22270703620419552 0.3817375096361737 6.650971179604865 6.940762519363899 0.19172520946608634 8.713279418746247 0.14971270119078178 0.10026595160522099 0.024582592776190397 0.024560432306242934 8.664700534873619 8.663804001237635 0.43642545852474707 8.587852178884571 8.582610898367848 1.4740850021709364 0.576924222196005 0.926200730923752 7.35845515176205 8.37186252206223 0.010917532157982034 7.741902147353524 10.3561755312602 10.350669087554946 0.9896473282367937 7.736893529111987 0.6968640363578377 0.0672482905889051 0.6560075311795445 0.45095074606726504 0.007973724401048274 1.7050930459331683 0.029153597079292704 5.659950889748391 5.660163626620649 0.007954870338257489 0.677493067717757 0.006654463964873176 1.7255345614907847 6.050985532227667 0.6152715698567852 6.378584074356819 0.7377083859700673 0.12732281833976564 0.01640382320437373 0.7397513631844704 0.02957720367331212 0.016466243708220217 0.006631803140431402 4.859154718961485 5.058541577993977 0.0650939634982828 0.029526270878041154 1.0948746981596074 5.02432439334809 0.06041998039586328 4.891686712633135 0.016402821064596868 3.3792339319812865 0.14302517952666274 3.3767759775463593 0.5911938998744212 0.13326547973600836 0.1397647087378285 7.046304169569658 0.5395712349827656 7.042209419011534 0.05846048689445557 20.566752099216405 2.5866948030179118 0.515326675254171 0.03381268810993539 0.010048207358715266 0.46870575693518457 3.348184236920278 1.2201742781756595 0.01004485387318462 3.2659630156417 0.104365874021813 6.812648477088541 1.221100562618962 7.203909971257222 7.200825210587369 0.005438553395091285 6.795653316718796 6.906521726013007 6.906555673218026 0.008208065694631854 0.008208008365701857 3.9644096830207785 0.0054324936677520004 0.4520233375911253 5.522886349109642 3.9658249694041294 5.70888385193063 0.12129051708550108 0.09805141498665702 1.9263480936560757 2.835776838771637 0.007287182024901347 0.11092403461861003 0.4094300256678278 0.007284700111671305 11.908981426258816 11.922188245740449 13.814082594070173 5.157029656052853 5.157430522085355 4.6437170887928 4.614407751656303 0.3911577977016797 0.7672185572697094 0.08263509036130229 1.489342452355391 2.3335848600496076 0.3563835860804966 10.24942227076477 0.011217746090931135 0.6647003752402899 0.15000758077450538 0.34323357487860007 6.522556959281933 6.519512475350072 3.5103290996291756 3.5084373329928753 22.218798650973365 0.31456313935394103 5.578695207044221 5.574396087179356 0.0029777545117486166 5.730679228318581 5.727824480211845 0.1502545692623549 1.6894694209484657 1.3913807004511272 2.4085370739078575 0.04573828246621399 1.5838462949730439 0.29959636808777873 1.6830596933082609 1.800708530127107 14.792729594077063 14.753772658376453 0.05983940007500418 0.01538376283705053 0.1135866611150633 0.2920871453308733 24.545258624487083 4.276801502032036 4.265987374194252 0.27946480102266535 1.9086337771663244 2.0369696224416463 0.044744033690057826 0.010642401193537257 5.109427365087649 5.107460593647262 2.819510123707492 3.692775223073211 22.445154923596096 3.7112003296556164 0.2609108325837172 4.521285730302659 4.520595674940879 0.016869295681765078 8.515788656561584 0.011600034255969447 1.1813252156584269 0.01602046008825217 0.013359087479880785 0.24165080460455335 6.933004931404161 6.9317512602543925 0.01335757326467658 0.3541696770713321 0.35242184956207107 0.017849820417361537 0.013912522548626537 0.015349014004957804 6.608243373586745 6.607447731600288 0.9995930319167265 0.061327140751066 1.147200352046671 0.2355156930795957 1.1405487834823962 1.4965332662582789 0.02603212230726191 7.1701182072451175 7.1697730237833515 13.055335211133649 0.025502402422831874 1.30420346103199 0.22644216020393307 0.010744622035816364 2.1485588048221365 0.0103460889987224 0.04073292294571502 0.2558984823115484 2.157702745256894 0.01863278397069081 1.481319020457377 0.12675936176844027 4.063775811219346 4.063832443863118 0.033891976646649724 11.258032839345336 0.010790212037792008 1.1280360318415223 1.103114638509428 19.431338016416817 1.3143350567450858 1.4581448541952826 0.21890902723428793 1.1647893435312549 0.2197511056563377 0.011004889137705864 2.490812409881433 0.02701870197161857 0.010103035582401948 0.8484211738348384 2.4661144458892093 0.7580563532706387 0.2121779242930928 7.292137981928429 0.3766595326176358 7.291987455511539 0.27220384842924866 0.3753189021544406 0.011608973216186582 5.776264696015195 5.775401732258696 2.152336406712491 0.7395568252677517 2.28003313155263 0.021447302176475842 0.19252156805887358 0.28901911957936294 0.022878202243172063 4.198782998738882 1.6529978763341007 0.010720913733408206 0.01629637865023676 0.6486756013751047 4.199579896994002 0.012230299221629787 5.403770937465769 5.402961039637138 10.905368045506165 0.01124514707653999 2.1914938326603637 0.011924230212508071 0.01226833111329438 0.3765591615136328 0.199384333571951 0.03429225762910708 0.03539411877612324 0.013122078293522126 0.10823728200731049 0.2908377845011132 8.353310692347199 8.354225192665806 9.939461878665698 9.94551517916168 1.9026013386846423 0.07559887104445966 0.37983300782568624 0.07946806958571441 19.454773447077912 0.038354379435167056 10.405626364533946 0.4342857672653109 0.3505892574813417 0.2693949790594103 0.024998213396232826 0.012222814904057723 1.2812693367146217 1.6595499226798172 1.8833882917357339 9.263918616516465 9.268950910018289 7.919384962693151 7.915968724413228 1.221187463228139 0.04424626454866488 5.09384386402036 5.0931178960934265 0.0664167203885659 0.012054722102879835 2.7215521998753927 0.011176783476492605 0.07602660910850625 0.0025087820714907953 0.0024695874221649624 1.1275930385244064 2.7008522287959877 5.92421476242128 5.924050417614329 1.9547289680291149 10.527478053820365 0.049126923598124796 1.4397479642091706 5.518213943610225 0.024853341858714077 9.485124816457358 9.481126185185122 0.9744683602575017 0.32423599957025173 0.810634816763368 0.2670563110220859 0.00265235388317689 0.02311250188212879 3.916439324190961 7.838123173174845 7.838643706986971 3.915994164974508 0.02502909856772034 4.753994357610182 0.9700306359784432 4.7535179717888045 5.569187310164829 6.0617587868653375 9.005294214766245 1.3466411370094065 0.02008052128034599 7.13788599771326 7.137186056378283 0.029613327477563445 0.4416986730332853 0.5952587470203254 0.013465542431125046 2.8908824001233633 1.153860986110881 2.6051337488704487 0.039523794892174294 0.23363330978132482 0.1392497336127715 4.837523051047509 2.7560760553969574 1.054217043140828 4.670448557247317 4.525101975373853 1.442077257730762 0.41048174649753555 1.0790719918663076 10.157061832324525 0.03664956355247396 0.03758803389096347 1.4393894351943644 10.164751127247232 0.18669643860961346 0.7394509626095819 0.8211192014890875 5.871008802980747 5.870319880926769 0.051915061511004564 0.01751160471357054 0.0729000450870324 0.30913646996986854 6.012940301336548 6.010852115727575 0.026781396133996334 1.2488671636190505 0.028558707717050255 5.206182668464367 0.2471284296773379 1.8290480983171895 0.015320227428469866 3.7687971911117697 4.125349319348585 3.769519021539262 0.42201559903206676 3.934315855111776 0.016983336097273385 0.017052042131976454 0.0763779057197505 1.1587295914913054 3.0738125552005378 0.02637443398703222 1.3686307010866017 0.021358437160551722 1.3036812473464805 0.20349712549525636 0.16376672384729857 0.031631232539758074 4.923586195149355 4.92235325375594 0.029523193574212677 6.013478721595713 6.012875063183371 0.02997925173557422 1.1828899880825299 3.9757504395097976 4.002408241722796 0.44426105416088435 0.25346473576920914 2.2181264424949436 0.009590014886150324 4.950198826181865 4.9479828016980765 3.0770435032792944 0.1378550152350349 0.007475960012923248 0.0131175406210464 0.024602405892007156 0.01234930470931794 0.0123718217418786 9.894460874645503 0.8237606190258002 0.08454543110236186 0.050031272912952986 3.6928382753248354 3.694674211018107 4.429543518629992 4.4292417244995175 7.521054949905684 7.464153353221538 0.05664940672591951 0.035361755609659665 1.3781705154166675 0.2220991105961984 0.1886521971402846 5.6547389360386004 6.225663163809747 1.0352478190630823 0.061330539158571895 0.013296998855584401 2.225483178960851 0.018468518713988955 4.3375305502934 0.0335776575147302 0.6410198296789175 6.908409783273293 6.9081408495492 5.565372457784262 5.565650913430172 0.0118552719289213 4.370920713463648 0.35579445505764207 0.6708886240680273 1.1397832847913465 4.78787823777005 4.7871538684739985 0.012940390474019648 0.4992281272805267 5.2501336715231 5.248509898337809 0.1165307265002633 0.8802599381101716 0.008765701474281145 0.18958333541197997 0.021784316440674547 0.01035083089668592 0.41495167132267535 0.009584193761908366 0.055779220498563674 0.025906867356330385 6.777412291995102 6.777053428123401 0.2732012700722434 11.623345611973706 0.6944610702103906 6.0813580765330455 6.081566169046186 0.0661215494867475 0.08040294136246233 2.5747469945126085 1.2648037069671645 1.507563854980253 1.9776822757046306 0.08846713330917742 2.8434920658996448 4.9695701020874266 4.969037113514257 2.629913362286029 0.024105599918301832 0.9882562050968187 1.3234376866193316 1.0831895857756997 0.06348952810178253 0.6287953519609427 3.4979005938805368 3.499755531296638 0.5016401095870193 0.05648578089871813 1.289517164199338 0.08017255154041451 0.04278789830403209 0.2886488548155615 5.618895414820012 5.61915163954287 0.018579401926115593 0.013499236799465311 0.040613045299160724 0.19497551204435432 3.4875260494517475 0.010024940039872395 0.07015160203154437 4.162530974919884 4.162535663346298 1.0050014580072864 3.639632901275445 3.648579726530388 0.5742123232911405 2.6460267564167 0.008888621152357208 0.058658556849504884 0.5619316152644039 0.011600418869697118 3.6145648448288843 0.19283255022219734 0.5601640291221157 0.009599462292804941 1.539978245320619 1.4644367703126049 0.16273436357263518 0.9400307581573637 0.7238557208553309 2.584183555862272 0.4617423698035318 0.010419966209232249 2.550645561627839 0.05548475686993617 0.00932773142413886 4.617242114341186 4.543949272856661 5.601242186417044 5.599528520742924 0.3110721965717378 3.406025790277765 5.282286109493775 5.281685202802273 0.012851215772272098 0.6497190151449509 0.11434874731428633 0.3789106691413795 0.1783209023518435 0.322869340430123 2.205024336702187 0.9213626161753833 2.273404855170776 2.0395233443693734 0.22143980169935124 2.0694519815197956 0.010115566425761583 0.3645363209710838 0.00876694668429794 2.563803087948597 3.5207843710883546 0.06539388280446462 0.046708704045360386 0.0433458731465416 1.6052471221369962 0.4979052711778242 0.19674967876653626 1.1526524581470665 0.1676225290948274 0.041135479307598304 2.246886068852134 2.256195413786294 0.040562904200448065 0.01142712209473604 0.7369397509355902 2.062848803975198 0.18868219992235208 0.3407921537405561 0.009869715410739874 0.062015013683600656 0.40153818225102833 0.07506148759212858 0.9669587744560466 0.9068590724766864 0.17373388947209414 0.18413176634341094 1.6977734249951255 0.25595692689354854 3.871686697491074 0.01583427408679537 0.10193170945242465 3.87109399062994 1.5449944996520137 1.5497486897771988 2.092468272084814 0.17032946128892554 0.035260852733126784 0.7957756380026405 0.02318630064775239 0.35365100490788215 2.416394377373646 0.45882326734373535 11.16387793254195 0.40216646811886264 1.8040459106251385 0.07224226673322354 1.1921974107037334 1.920053733566621 0.2048323441281054 2.0501231266752256 0.7817313585340381 0.058936444914580714 0.5017561491685381 0.04491249997870661 0.9142668625240701 4.34453235621654 7.673955783393665 2.5905534423337917 0.5847773485342629 0.03432583044488164 1.2082464520092935 0.008852299533626715 0.01595209018588516 6.1972444234549435 0.08913672317847397 0.03732455495424004 0.010614801472796073 2.051472127656015 1.3265827635922087 0.031887452967234664 1.5644066581480165 1.581117866283225 2.780125387988213 0.018466455343642427 0.9279458437210177 0.15415801866038306 0.09330381063566756 0.3116268147508687 1.1872801207620665 0.013498762821544824 1.1904794984792357 0.3827124724973954 0.015923271875276524 0.02837451369072533 7.674241506206343 1.803109857934547 1.4234255954748125 0.14067326725762747 1.8475964024442058 0.18203909303468233 0.4617763392008307 0.2689535073015509 0.9796465124764111 0.009163551112025626 2.324661214278314 0.020432216362506948 0.15447316631962318 0.9168824911094685 0.1514075886705739 0.020747235097039796 0.8154324255537243 4.530569898304204 4.530277440130132 0.00888015815143152 1.0028611795764357 0.010461230665554346 0.01504222565037961 0.2154057715168804 0.013064167857930561 0.017612960110735144 0.009463960125905713 0.020253858610016377 0.014147794891264944 0.0480350449416992 0.01538485496612194 1.672405799119385 0.9047198300254301 1.941339048611599 0.9123608555886741 0.8040558366654752 1.1357239929663772 0.025107187884684846 0.18022344509156668 0.14587652126924142 0.6632087304654878 0.02348931533941609 0.04723594223913887 1.7302832279158609 1.639612302518246 0.19977421282081903 1.0741163959665034 0.010277971942662271 2.521750996778927 1.2885971863538368 6.197367575547773 0.01274416968311292 0.012759589849152715 2.1781461802534072 0.5768805159798936 0.280754568248165 0.009543758452534771 0.010550199435145333 6.58295385605878 0.46293379982894167 1.395577843518968 1.4733713579375163 0.6949015536911348 0.9035360014039758 0.38313956340725525 2.723823282100712 0.3506486214443265 0.020917490489095334 0.4415039687401864 0.2373066826491397 0.745872661860029 2.040810110868798 0.009416693956180184 0.009589010375876153 0.011386509322531449 0.029526241529080257 0.7129607455345567 2.2337476462201145 0.8634317692001706 1.613491364132749 0.24967247922361616 0.9289646727779854 0.020133685362023406 0.059894140558233194 0.012292792796689682 1.4962271615161353 0.7513092788292897 0.05868266121317469 0.8587315398845836 0.14462858674810553 0.3500667043646599 0.010165170029637235 0.010224807876910413 0.21773944709626855 0.05666479604233178 0.01222786815516875 0.6364341940941008 0.2691108886775851 0.03231391487742238 0.8165278496784739 2.2726247255967422 1.4716301862848007 0.014258983936769444 2.0405675935369745 0.00885076998688768 0.34025710731673164 0.00930402744665295 4.102433395254426 0.6447960414550136 4.041969937871418 0.053603084807031895 0.010061983140660553 0.009933789429237226 0.06528713610169504 0.027970942022859126 0.028122435676416462 0.060499040403452546 0.09119837817620378 0.09636085764881194 6.582907334392239 2.1067391910600786 0.8672899139718871 0.8150704132647298 0.07410971725868644 0.6744968714144364 0.009983713380976183 0.8636399300151975 0.8991290034601751 0.048216375587814005 0.006741594569619255 0.06286848906476984 2.44361879671062 0.025422247821799564 0.036594566539529305 0.6313388066724104 0.629407199258714 0.010666553816216987 1.8497059299147658 0.8843643335315786 2.6286009546812843 2.4434502376022964 0.7933659175196482 3.04342290120737 0.23585049708347153 0.02101586126141085 0.1671308987687757 0.10869747806141938 2.470846094802842 0.21222061633857148 0.13430319543499178 0.43448848272081353 0.1585864698472041 0.074527745957856 3.6428588066293153 0.12766168049281185 0.010424898977117292 0.539076258107223 0.13318667196670367 0.06676307401035998 0.030340364048375135 0.03091915743851545 0.009865318368292363 0.010301342460353713 0.18001905131066953 0.15734382982964862 0.19957231642210985 0.05381401308745454 0.053633768179364286 0.059748510891200514 0.053839830285368595 0.0857015692113298 0.07088081691816266 0.06736118962508357 0.1016922089905457 0.08520816978040503 0.10559944460202696 0.20561607338558474 0.02386522357248979 0.04711209211499577 0.08787139595374954 1.1178720692479391 0.06540118961852281 0.08315918231664413 0.09088345486414562 0.09618956015843545 0.10290934863162025 1.6694808314145075 0.3537002070087217 0.010529916268206822 0.0068754041409146045 0.0331633941827718 0.03036957218923181 0.03108164284615797 0.06150371706484192 0.029028629788142177 0.03153577683188557 0.42454394621887703 0.045810493872316595 0.04221140618136408 0.24562386116625426 0.06257802150009273 0.02371376174800081 0.051499337919084114 0.05160486325626916 0.06873657523017572 0.09786166533467225 0.07818008249197343 0.01109012799176958 0.06959863742941454 0.08869077327761092 0.0406660578960078 0.11055632131788007 0.09923179669396393 0.03143976157458819 0.009784112410746454 0.00785946686292729 0.007861537380770356 0.01293256641330402 0.23727743740018206 0.1206303096277075 0.014928845520644298 0.010738158401225849 0.1367135293891234 0.2256255844523385 0.2197621479886979 0.5298024839851099 1.198661328940173 0.013573889598352018 0.3566773782658283 0.23718841724117337 0.4469064469795771 0.16497895793421874 0.3473684416565255 0.43371408599855427 0.045583013974514586 0.400552247604672 0.059498534965458344 0.3005629975912986 2.0040924827601305 3.017231414262343 0.2570834509031822 0.35549799012006916 0.25789993656404125 1.9456977267405788 0.015265153860540474 3.5248295176952413 0.09829732714969328 0.01728041257948271 0.31975841994714993 0.2373342372002654 0.005595605262296912 0.02983231384378548 0.21582700849688852 5.249443614573581 5.249146812556195 0.014379879899868036 0.1869167466532275 0.006748604932546456 0.18038849179978536 0.011735243081564928 0.013074191181602992 0.014014490256079693 0.018293221631508226 8.275845259104404 8.276429887139642 0.08093735138106686 0.05018027764394464 2.035536333239083 0.5130072753545517 0.04609209578900398 0.014277995631107156 0.1090400957319908 0.060725023190273376 0.08639193003520033 0.07194691024095368 0.06758488824737746 0.32167663012022446 2.9715809045607187 0.05728763166415233 4.057056191511515 0.1427018445055134 0.27793080500835954 4.056880368785146 0.0479579332320177 0.5465515457480467 1.0657679318978548 0.7161029688125453 0.9120731019177071 0.007123385011796076 0.38213941876867263 0.025239352828575274 0.033636314891824864 0.015131403507720586 0.037013011245055065 0.1346492733371074 4.31440775769511 0.