# vtk DataFile Version 2.0
Really cool data
ASCII
DATASET POLYDATA
POINTS 4873 float
0.0 0.0 0
100.0 0.0 0
100.0 10.0 0
51.375 10.0 0
51.375 5.0 0
48.625 5.0 0
48.625 10.0 0
0.0 10.0 0
0.5000000004713866 0.0 0
1.000000000927485 0.0 0
1.500000001363928 0.0 0
2.000000001715368 0.0 0
2.500000002054665 0.0 0
3.000000002393964 0.0 0
3.500000002774895 0.0 0
4.000000003277256 0.0 0
4.500000003692882 0.0 0
5.000000003976668 0.0 0
5.500000004274332 0.0 0
6.000000004780162 0.0 0
6.500000005285994 0.0 0
7.000000005791824 0.0 0
7.500000006297656 0.0 0
8.000000006803486 0.0 0
8.500000007309318 0.0 0
9.00000000754453 0.0 0
9.500000007717295 0.0 0
10.00000000820231 0.0 0
10.50000000919386 0.0 0
11.00000001005358 0.0 0
11.50000001089247 0.0 0
12.00000001160647 0.0 0
12.50000001222332 0.0 0
13.00000001261813 0.0 0
13.50000001320723 0.0 0
14.00000001448328 0.0 0
14.50000001538463 0.0 0
15.00000001655659 0.0 0
15.50000001749263 0.0 0
16.00000001844256 0.0 0
16.50000001885125 0.0 0
17.00000001942646 0.0 0
17.50000002026536 0.0 0
18.00000002147896 0.0 0
18.50000002276195 0.0 0
19.00000002303186 0.0 0
19.50000002330177 0.0 0
20.00000002411291 0.0 0
20.50000002470549 0.0 0
21.0000000253501 0.0 0
21.50000002582124 0.0 0
22.00000002645197 0.0 0
22.50000002704107 0.0 0
23.00000002832406 0.0 0
23.50000002920459 0.0 0
24.00000003004349 0.0 0
24.50000003088239 0.0 0
25.00000003206824 0.0 0
25.50000003379531 0.0 0
26.00000003552239 0.0 0
26.50000003724946 0.0 0
27.00000003755407 0.0 0
27.50000003846583 0.0 0
28.00000003923187 0.0 0
28.50000003918259 0.0 0
29.00000004102069 0.0 0
29.5000000416202 0.0 0
30.00000004290318 0.0 0
30.50000004300656 0.0 0
31.0000000420691 0.0 0
31.50000004118022 0.0 0
32.00000004132176 0.0 0
32.50000004149453 0.0 0
33.00000004170198 0.0 0
33.50000004287395 0.0 0
34.00000004384817 0.0 0
34.50000004249437 0.0 0
35.00000004244509 0.0 0
35.50000004239582 0.0 0
36.00000004245755 0.0 0
36.50000004329645 0.0 0
37.00000004513455 0.0 0
37.5000000477498 0.0 0
38.00000005036505 0.0 0
38.50000005220315 0.0 0
39.00000005304206 0.0 0
39.50000005353401 0.0 0
40.00000005333207 0.0 0
40.50000005421954 0.0 0
41.00000005567601 0.0 0
41.50000005740308 0.0 0
42.00000005913016 0.0 0
42.50000006085724 0.0 0
43.00000006258431 0.0 0
43.50000006431139 0.0 0
44.00000006408864 0.0 0
44.50000006464304 0.0 0
45.00000006637013 0.0 0
45.5000000680972 0.0 0
46.00000006982427 0.0 0
46.50000007155137 0.0 0
47.00000007327843 0.0 0
47.50000007472796 0.0 0
48.00000007472724 0.0 0
48.50000007551063 0.0 0
49.00000007675892 0.0 0
49.50000007837843 0.0 0
50.00000007921737 0.0 0
50.50000007611497 0.0 0
51.00000007266216 0.0 0
51.50000007051736 0.0 0
52.00000006870559 0.0 0
52.50000006549217 0.0 0
53.00000006532495 0.0 0
53.50000006340217 0.0 0
54.00000006157653 0.0 0
54.50000005975088 0.0 0
55.00000005792525 0.0 0
55.50000005615513 0.0 0
56.00000005402418 0.0 0
56.50000005272938 0.0 0
57.00000005175028 0.0 0
57.50000004992467 0.0 0
58.00000004809904 0.0 0
58.5000000455934 0.0 0
59.00000004519715 0.0 0
59.50000004296908 0.0 0
60.00000004114344 0.0 0
60.50000004036905 0.0 0
61.0000000388123 0.0 0
61.50000003797199 0.0 0
62.00000003731208 0.0 0
62.50000003570157 0.0 0
63.00000003389675 0.0 0
63.50000003122457 0.0 0
64.00000002933822 0.0 0
64.50000002551418 0.0 0
65.0000000194697 0.0 0
65.50000001766836 0.0 0
66.00000001634231 0.0 0
66.50000001490875 0.0 0
67.00000001295126 0.0 0
67.50000001159053 0.0 0
68.00000000965386 0.0 0
68.50000000539964 0.0 0
69.00000000128068 0.0 0
69.50000000200856 0.0 0
70.00000000029395 0.0 0
70.49999999907897 0.0 0
70.99999999758295 0.0 0
71.49999999571567 0.0 0
71.999999994433 0.0 0
72.49999999486944 0.0 0
72.99999999363362 0.0 0
73.49999999042018 0.0 0
73.99999998851476 0.0 0
74.49999998793812 0.0 0
74.99999998650452 0.0 0
75.49999998433195 0.0 0
75.99999998407449 0.0 0
76.49999998046903 0.0 0
76.99999997858791 0.0 0
77.49999997992639 0.0 0
77.99999997841302 0.0 0
78.49999997601142 0.0 0
78.99999997594827 0.0 0
79.49999997767536 0.0 0
79.99999997940243 0.0 0
80.49999997943296 0.0 0
80.99999997760733 0.0 0
81.4999999745049 0.0 0
81.99999997152742 0.0 0
82.49999997199166 0.0 0
82.99999997233094 0.0 0
83.49999997405803 0.0 0
83.99999997578509 0.0 0
84.49999997678707 0.0 0
84.99999997698411 0.0 0
85.49999997662951 0.0 0
85.99999997813454 0.0 0
86.49999997747813 0.0 0
86.99999997647127 0.0 0
87.49999997564485 0.0 0
87.9999999738192 0.0 0
88.49999997199359 0.0 0
88.99999997016793 0.0 0
89.49999997110397 0.0 0
89.99999997227594 0.0 0
90.49999997108868 0.0 0
90.99999997217738 0.0 0
91.499999974182 0.0 0
91.99999997525684 0.0 0
92.49999997841331 0.0 0
92.9999999807649 0.0 0
93.49999998216586 0.0 0
93.99999998337596 0.0 0
94.49999998384015 0.0 0
94.99999998456803 0.0 0
95.49999998665594 0.0 0
95.9999999888132 0.0 0
96.49999998808393 0.0 0
96.99999998926977 0.0 0
97.4999999914687 0.0 0
97.99999999325128 0.0 0
98.4999999933824 0.0 0
98.99999999655279 0.0 0
99.4999999981827 0.0 0
99.99999999999999 0.5000000006396631 0
100.0 1.000000001299887 0
100.0 1.500000002317897 0
100.0 2.000000003487696 0
100.0 2.500000004137077 0
100.0 3.000000005358917 0
100.0 3.500000006945049 0
100.0 4.000000007906681 0
99.99999999999999 4.500000010498953 0
100.0 5.000000011460584 0
100.0 5.500000009022157 0
99.99999999999999 6.000000007850081 0
100.0 6.500000006348403 0
100.0 7.000000002851798 0
99.99999999999999 7.499999998487827 0
100.0 7.99999999873822 0
100.0 8.499999997583487 0
100.0 8.999999998597158 0
100.0 9.499999999107754 0
99.50382652747648 10.0 0
99.00765305623804 10.0 0
98.511479581601 10.0 0
98.01530611041743 10.0 0
97.51913263860372 10.0 0
97.02295917079583 10.0 0
96.52678570519082 10.0 0
96.0306122331169 10.0 0
95.53443876657286 9.999999999999998 0
95.03826529780375 10.0 0
94.54209182678659 9.999999999999998 0
94.04591835813612 10.0 0
93.54974488816865 10.0 0
93.05357141282886 10.0 0
92.55739793883966 10.0 0
92.06122446748883 10.0 0
91.56505099883478 10.0 0
91.06887752664228 10.0 0
90.57270405506752 10.0 0
90.07653058295114 10.0 0
89.58035711228268 10.0 0
89.08418363548608 10.0 0
88.58801015952142 9.999999999999998 0
88.09183668899459 10.0 0
87.59566322294263 10.0 0
87.09948974782766 10.0 0
86.6033162772123 10.0 0
86.10714280718287 10.0 0
85.61096933460624 9.999999999999998 0
85.11479586218627 10.0 0
84.61862239211614 10.0 0
84.12244892236815 10.0 0
83.62627545117046 9.999999999999998 0
83.13010197789903 10.0 0
82.63392850614727 10.0 0
82.13775503350514 10.0 0
81.6415815663557 10.0 0
81.14540809608377 10.0 0
80.64923462725628 10.0 0
80.15306115774904 10.0 0
79.65688768442892 9.999999999999998 0
79.16071421162928 10.0 0
78.66454073965802 10.0 0
78.16836726898252 10.0 0
77.67219379798482 10.0 0
77.17602032915731 9.999999999999998 0
76.67984685646209 10.0 0
76.18367338598658 10.0 0
75.68749991582263 10.0 0
75.19132645079381 10.0 0
74.69515298298943 9.999999999999998 0
74.19897951268918 10.0 0
73.70280604564594 10.0 0
73.2066325775849 10.0 0
72.71045911123203 10.0 0
72.21428564370733 10.0 0
71.71811217323713 10.0 0
71.22193870648067 10.0 0
70.72576523258532 10.0 0
70.22959176505174 10.0 0
69.73341829551264 10.0 0
69.23724482294666 10.0 0
68.74107135889139 10.0 0
68.2448978885221 10.0 0
67.7487244218683 9.999999999999998 0
67.25255095156096 10.0 0
66.75637748568778 10.0 0
66.2602040161876 10.0 0
65.76403054769995 10.0 0
65.26785707971325 10.0 0
64.77168361246112 10.0 0
64.27551014712785 10.0 0
63.77933667701165 10.0 0
63.28316320826204 10.0 0
62.78698973705903 10.0 0
62.29081626353004 9.999999999999998 0
61.79464279368297 10.0 0
61.29846932606976 10.0 0
60.8022958586247 10.0 0
60.3061223921594 10.0 0
59.8099489274085 10.0 0
59.31377546162206 9.999999999999998 0
58.81760199255736 10.0 0
58.32142852645585 10.0 0
57.82525506129074 10.0 0
57.32908159747622 10.0 0
56.83290812867526 10.0 0
56.33673466333487 10.0 0
55.8405611986884 9.999999999999998 0
55.34438773081679 10.0 0
54.8482142643524 10.0 0
54.35204079754239 10.0 0
53.8558673357684 10.0 0
53.35969386673906 9.999999999999998 0
52.86352039705486 10.0 0
52.36734692959035 10.0 0
51.87117346759639 9.999999999999998 0
51.375 9.4999999992931 0
51.375 8.999999997909656 0
51.37500000000001 8.499999995624156 0
51.37499999999999 7.999999996044826 0
51.375 7.499999995424663 0
51.37500000000001 6.999999997562708 0
51.37500000000001 6.499999996925199 0
51.375 5.999999997536689 0
51.375 5.499999999518609 0
50.91666666251056 4.999999999999999 0
50.45833332053974 4.999999999999999 0
49.99999997304673 5.0 0
49.54166663625117 4.999999999999999 0
49.08333330584519 5.0 0
48.62500000000001 5.500000000741595 0
48.62500000000001 6.000000002142386 0
48.62499999999999 6.500000001270689 0
48.625 7.000000001804118 0
48.62500000000001 7.50000000205999 0
48.625 8.000000002437293 0
48.62499999999999 8.499999998521153 0
48.625 8.999999998308652 0
48.62500000000001 9.499999996968576 0
48.12882652874821 10.0 0
47.63265305688925 10.0 0
47.13647958573127 10.0 0
46.64030611722848 9.999999999999998 0
46.14413264599439 9.999999999999998 0
45.64795917526478 10.0 0
45.15178570282346 10.0 0
44.65561223243017 10.0 0
44.159438761343 10.0 0
43.66326529112673 9.999999999999998 0
43.16709181745517 10.0 0
42.67091834565287 10.0 0
42.17474487491263 9.999999999999998 0
41.6785714040361 10.0 0
41.18239793217716 10.0 0
40.68622446170599 9.999999999999998 0
40.19005099145431 10.0 0
39.69387752322059 10.0 0
39.19770405541522 10.0 0
38.70153058328367 9.999999999999998 0
38.20535711254698 9.999999999999998 0
37.709183641828 10.0 0
37.21301016996905 10.0 0
36.71683669811009 10.0 0
36.22066322707957 10.0 0
35.72448975456567 10.0 0
35.22831628337937 9.999999999999998 0
34.73214281198773 10.0 0
34.23596934429389 10.0 0
33.73979587543531 10.0 0
33.24362240498538 10.0 0
32.74744893312642 10.0 0
32.25127546187463 9.999999999999998 0
31.75510199069187 10.0 0
31.25892852056057 10.0 0
30.76275504996903 9.999999999999998 0
30.26658158188399 10.0 0
29.77040811186597 10.0 0
29.27423464056638 10.0 0
28.77806117039082 10.0 0
28.28188769926824 10.0 0
[...]
CELL_DATA 4641
SCALARS flow double 1
LOOKUP_TABLE default
0.11860911916076136 0.19969735719885337 0.19982788142860952 0.03754057299662522 0.058842427176670174 47.16026298999927 47.030536868274446 0.32001308982275195 0.7532539669579212 0.02261760007505108 0.0588966800265271 4.354870645009713 0.05074815317185535 0.05069388380183394 32.47391018790253 24.053976599220114 0.07797905308457301 4.413797497961605 0.07790559849489938 0.04126524696888855 0.04096022269198997 0.06413942774694364 0.3221198038968188 0.032296847796652206 1.9476194731685883 0.03052853763092342 122.96095262437343 0.12293889429632854 5.430855845735229 71.8088808110832 94.31179064540896 9.572405033932558 22.87522090275825 15.209010872144287 0.08480393551663211 21.2869321879779 0.5689324409501968 0.084783367410044 68.06322942901144 110.1481511505166 0.02871550582525305 0.42028555548908775 1.873019454010241 88.45686969963528 0.43659960057915426 2.05456676131342 43.50224378682783 43.44764828882022 9.185216021388 123.19149944901206 77.50675863916521 0.28123123299578673 3.125003781744837 9.016813322144666 13.003610969626552 1.1363628123440055 0.04760183777559757 0.047901028835431944 0.1314638146082817 34.42775002272503 0.05660180466638554 82.23251454289831 0.055482285308426256 25.832594691558054 0.5570727288880043 1.440523161439653 0.5425843953498155 19.726122776851906 0.047796108253568385 15.983459446865426 25.910961525988686 0.016477300379402364 0.04654803460639223 123.6504496868306 0.12847810021502115 12.280180804103882 21.176220058981087 0.03790910803928403 0.12866984595742087 88.17542364724643 0.9589037880654178 0.9344163351938096 52.36693845615616 52.313504086172706 14.924531603640636 15.005020839008628 70.42436998252897 18.457286075805573 1.05910957946107 0.027133817544822438 0.027313490806010626 8.20886607479092 42.80517784818721 42.75291165912382 0.026483859786797688 0.024246379224496312 2.8365442232489353 4.882072321580055 2.7711303287850866 4.757113743877657 19.0632423190493 65.0103751921666 1.5383824307543472 0.9909923204172524 123.42906208398097 0.015698023828727176 27.1629519390746 0.7428817335190402 0.7240785086003267 0.028011992932865423 0.06252050550123797 0.02301300761360314 7.217600632753646 7.091908697470707 1.3244375398654313 45.63179069201768 2.2040418032340843 45.60804372144529 0.2515185878016256 0.25118203176291376 8.713027519581134 26.824586619853786 6.1477559113807025 0.1771431933601178 54.0067902188738 0.06180944943765992 0.5276736291214182 0.983782351515092 0.5297057612581014 3.565166223393424 0.056383919894251296 0.11873679953592027 0.11954612344510698 0.047599565176043364 53.058286890301034 0.2947920075504222 1.8971532931236519 1.0594986458858378 53.01307909525228 65.9598252193915 2.7785940230177526 0.38047625717823363 106.43495380128014 0.03508670592006017 0.29504877542898933 1.8506803096339208 0.3808388680557685 0.057514786866436685 3.560081413779273 0.04894863509195554 0.2593206978601868 2.2174756349228804 45.42612661927469 46.52901708676855 2.128788935752218 76.29765628013195 6.50685062030156 0.11265965422076654 1.7225099886947695 1.7619122018758735 6.482675419626318 2.0044131323287235 1.4454708431024028 70.81476163216952 69.26429212001342 72.41312502508217 102.22592497194552 80.72313859604036 0.597916328970014 0.13744833562985523 47.705459821142384 48.60665715346248 4.280357615722502 65.35548515948678 4.130581873949131 4.039165401610373 3.939879941434354 0.9189642470317435 11.45949065304885 34.48011091881075 82.07145677329952 1.107172022788057 0.22356859057430772 0.1077076752984005 1.0801357736999564 0.019858908424079072 10.159645226450786 169.57721334229663 0.7680608473601809 0.09999082497710887 0.09897391960362188 28.66925759591617 92.27909133183272 14.445129465308979 0.1158914938604504 69.70512266824034 0.1137736556660672 1.3824407412226338 53.778333249379486 53.18288939121248 66.37419719269592 0.10600799617183516 0.09283862955383233 102.91726121793441 59.08956142893543 0.10428519094917607 58.61370489072493 0.1043183662259185 0.09274592612919483 35.85953252704238 58.71023066661516 28.98200399512433 7.903857156580219 0.0643745918946542 88.68186396671523 79.38694171762083 1.6342720370712003 60.85102748655011 0.07265063570459865 1.6019900413731316 0.015328418962804137 4.666389540873251 0.05423330064053939 7.428963881339823 61.58695931946647 77.16912844656339 16.00654276529501 15.856649621335302 29.549725629525273 0.1399276899016302 64.38393470874836 8.050785206180965 11.771022788772678 0.07269777276035386 0.14011548229598952 0.04512932493999025 105.23238759810515 0.17810016627404981 0.08847449023837717 0.08807397629659047 0.6928013840438895 0.025877936517101074 0.02721799371895231 31.560918096873237 3.2628887929535333 55.84730591529373 3.2103138916654683 59.54231098253407 56.8518060721633 0.07735152557712616 0.06102930487872704 7.4120806364795655 0.06246917447251644 57.439284994844364 1.3564616406631924 1.3525573514491562 0.09079028106184937 0.08360286294355665 0.0772726153571758 4.618454429478297 0.08359510137632396 0.07682058849200836 2.8209584790340183 0.18761515720439345 0.1710484656735224 0.07530544069537749 50.713146044189095 50.51920779187945 5.458758953444077 34.34338782264235 88.00087784074931 0.637805634492701 16.28522621178041 57.10615079039279 22.561907116230927 22.619679338891952 55.80598986151337 55.80070659585318 83.62469533008084 0.10698955339379815 0.10631868202903784 5.174344785841072 8.129578020277629 1.0549767810811286 0.6288503049716743 19.81656161435951 50.75797996882306 50.677570732331915 4.163452758214445 6.022637284090888 0.11845125970774764 0.11777560231150316 6.457608123960216 56.41080225475563 58.31796247220999 41.85533050332431 41.882849192682514 0.15164358002341397 0.20393080460629323 5.799621971865614 0.11065418680264336 11.7861199656198 0.11049875697746087 56.94009907263578 9.071049874450377 56.86537269977362 9.792337885701363 0.10317218487128813 0.3616487161726594 9.112160247794556 8.063712146037716 104.15329044684225 8.070033886976464 0.10420748234765037 2.8817752641189105 2.8747044091297362 53.29843538081229 22.596092386238677 21.11070803106981 0.3112335016671009 65.47205957232498 0.3076875486134573 34.0894037900682 7.59291995657037 0.0895831873102752 56.38619228006631 21.072872880517934 0.09045150766072348 0.16194866479016018 45.15340771419068 8.256780718181643 2.4763089779977157 0.263319864791515 2.471833713529826 182.6370339007863 84.64991641904463 45.29647129814995 29.49063333622699 80.64632023290093 0.2270296200198119 13.24831055400391 52.5439040582306 65.06324262555694 65.89826090675056 73.09377314124215 70.05710803129185 8.263617110608699 0.19928681705620993 0.26805455530066735 9.359651698047662 55.366380328780686 0.20033593745808642 53.549425417718524 7.548570981897906 7.544617904270214 0.2872754194036032 0.19158210145868731 13.919796994398828 49.10393215166274 47.74689458240559 47.81844935891096 72.98174584794613 85.28163434566454 52.55508566006926 99.38472016189466 131.1886703335544 0.2424490865768494 7.562969117401143 0.11516134465407497 0.11489248383646211 9.829840004763799 6.307284055134229 49.56015441039567 5.6954449067363955 88.33301427131042 5.617449590239041 82.81450693358026 100.87714396055995 0.09653610474273765 0.4554483749968787 0.12304528895737363 0.12372977172612892 94.79521652015728 0.09452976777021374 33.73116523293492 52.02112254846161 1.28030491837451 8.399872885301473 73.88521385179637 52.01184196076702 54.819793043162434 35.82067232429067 35.750875461860836 7.238819549748165 1.284008820705268 54.829366701606844 72.1926750541936 0.5493061284352296 0.3036575758280234 6.925298215019528 44.93024763975279 0.13750825885436666 0.13780300122591563 9.195900599478053 0.44060132232954674 77.82617395719814 0.43387998454849364 1.3579900834027125 0.2049002005904071 1.2063241295836933 41.428388236312145 41.40065921993146 73.03511125141058 45.14713957866486 21.5857372378835 48.307685619347836 48.28628671753608 2.652731297896267 2.582819390938217 2.554706288042006 0.2823372962473291 2.6642276557020264 1.3528004669660676 82.57009748299991 7.761384701006619 55.67035600579097 53.593981750654876 59.51393567570724 48.85159239679396 2.045501376157022 21.43963637955591 1.2085774189418321 14.748468728868563 65.81622093132188 49.46127118055297 60.089411532618804 55.7056662651328 73.89367810219905 1.6224382969723992 7.006247403292652 7.461055682593555 7.8173069765127625 77.72175300477736 45.192676893163615 45.21027795976631 38.65026059710351 38.69396847641429 1.1272180868790798 0.9063571036708052 0.18050781544920105 1.466301225807052 30.67537121715357 22.661841685614352 19.47791281158549 1.4511177689476984 42.22170475893443 42.241954885615684 12.643633378695696 1.129253310727064 8.981303210912122 49.5441680296681 25.987497326918287 0.18734238977217435 54.22215488932748 29.55548881709902 46.136232113004965 68.04935884482083 0.13287011411875735 0.13274983177161293 45.85219394997962 0.09553354760401496 0.35579680357961646 67.7598497155476 0.44308967986026654 96.47974814831719 48.23981567719543 1.054880078923064 1.753653073096389 1.5541067275146836 26.113883206933384 1.0529463209276226 0.4869659007948912 1.5551364544181898 0.08094071485863583 0.3100689235386618 0.15357997396817624 0.15375015988500373 0.34488714400741693 0.07916219106963028 72.96294136707317 0.7389892977936543 2.2150139549849235 2.2300285836294385 73.87802779544704 65.87286114523859 18.37514820385673 51.084248543568286 7.741299514219067 51.11600791202139 60.55249056865654 62.74073672494754 0.12996461052703046 0.9165482296022854 2.192342677038596 2.2181741264212804 44.781637099876555 44.758561966214124 0.07584709107111953 1.7084140775355983 0.9859067936651019 20.041596322180492 72.07425046322528 33.24376532204145 26.650838660022227 54.860720908110785 51.97710618642754 51.956598543753614 3.3970189137192772 0.20490891690832827 3.3290120203184568 6.117342393278126 70.70101530292061 19.2400420528491 0.7380750031197327 0.09317062131445128 3.6256106390870513 0.9846113621742607 0.1444379583600404 43.74080502934616 43.69585656973245 21.7997673422308 18.168720410918468 0.17631801580179163 0.5149501311921987 35.508748462439 35.36572929011437 88.90127484066743 62.702391653161456 64.56086099986753 0.4624174762409298 0.4469519981698022 53.30071728132995 33.34983314286352 0.019855899827358747 35.45184247899411 32.1879084391123 54.18742561993408 0.07904071305399786 0.4859074598940606 7.242017965428124 59.29713295434615 0.14475870154784537 30.35173518934401 0.42329708489834517 84.43474994768039 1.9538786284243232 0.20521991117017363 0.20688437863482387 1.633235391441673 0.16433436218204214 0.23764747073958714 1.0299953825881145 13.170296457083555 0.7036249932574336 0.7129252270093293 18.168008320835202 2.9248650943002485 32.19644227326722 6.372879535485679 2.0187184609179027 0.332916225050707 0.43575900509622895 94.88532977275358 34.12865286130107 0.17236353304188115 2.868014516340331 65.40026742457714 0.4003060869250624 6.266939978142962 7.6010375888612245 9.454123020706422 0.4010484217742564 0.14786199126091165 0.5898013310268279 0.60637873076331 0.3741276201124016 0.9717154047418405 0.3619515024863034 0.8416891119836472 0.7537799556131466 0.7592028196164989 0.23862358577344767 23.715547171945655 3.6377669007144635 0.16441058240928993 0.5538469241356462 0.25641246277288954 2.8383400397863303 25.604534408931773 0.09341546850148379 1.5702785045345893 0.40642923611483917 2.186036042027313 0.14160372920818007 6.3845813176785855 0.08199717267435605 11.489769399088098 0.18556583682819905 0.7431443293258321 56.824450902575286 13.681309967344053 0.4712165183466479 5.776972902469639 0.6793973157606754 0.21064747179606225 0.14759156716553298 0.26194406766709344 0.07047674109912415 3.049028519869969 0.5394798336497233 25.422185953486917 27.64794752837638 6.41292525090093 6.641121381082005 73.72214125685896 0.09879634405550468 3.0682388217342926 29.492710579107392 0.8868416910051607 7.59841388885515 0.6774061168532822 2.027098047097159 0.23411188417176956 0.2297506846141154 5.67066045510119 5.851256319729547 30.43166860834742 3.2881718223828162 0.18299593556842186 3.5321219093823677 0.19253179098112472 0.08421037341855327 2.9675625529418306 0.6732317237082862 1.5911233770594873 32.935394138145774 0.4653308928567324 5.966851933393235 33.60070095929374 0.4969200165822261 0.2414361335152012 0.6319349115589021 1.543538266618687 0.16738562207216257 4.4323004149602765 3.048248002920393 5.455621800694221 49.65934895388434 49.62450919503709 14.08137643989893 3.760277896822424 59.24499849760282 0.18375451167655038 0.5438244255814003 0.20955352208926273 0.70146142915584 4.466852233946744 0.07689357556175065 4.317530835999191 0.06125220462261362 13.001499875045491 2.025489925431151 0.17552389066224514 0.1763545073427376 1.1237015512356772 0.2569859882256076 31.503061122062142 0.5205104419309172 0.1619833273581949 0.2361437117329713 2.6693395923321273 0.06646940149021557 0.14993789212855693 54.822788051351544 54.56012233973881 23.053035397257403 1.2919985923366009 0.39415145680630187 13.989783395596366 0.07843709946193007 0.07800771175431451 2.666211940123504 0.46782162028798646 1.0241837458689957 1.0278516638073183 15.089942192466518 0.618575433400653 3.519841511143517 6.004331404215616 5.7470495667589505 0.09192948068699833 0.05932936786936948 0.35644453203140636 0.2202570076283583 0.17672653634349691 0.10892428848083144 1.253786446714458 0.6024040022002214 0.3708952334271258 0.5899040484717322 27.62242128050884 20.299105029946073 31.363669695401615 76.4996830102117 0.08497488389205325 1.5288853882362063 27.570946515637416 0.5090896803157783 3.490829995112808 0.13292891444871607 0.5254430995442346 0.1415326279980419 30.98883661068279 39.179061351336316 39.12959540763444 0.07539761499982169 0.15933010317807453 16.3990117444799 12.914565624845238 0.13332088332819503 1.923155311152982 4.406742814300857 3.803577198176586 0.9980207520192501 0.08398069435338645 0.08356164332089355 0.8313684776669148 0.08717412907603724 0.08655602436137468 1.935695518596582 0.6216618978782875 0.07003723393103346 0.07035134267309291 0.6845240193990351 32.876557280258304 0.7635309826138409 2.7736453628368896 21.389530895438355 5.041173023484538 0.07415245597304462 0.0741440407468495 1.0038605126651534 17.018012939712165 7.1460778511086325 0.700657548139308 0.22320375782802615 0.48691547496005916 0.07609137528915634 0.07660844409794963 2.457064092051211 2.442278165652641 0.6453485881211788 0.9950678113691942 0.9977309207329615 1.717739669914586 0.6200630866801031 0.06663245137790562 0.06711343856478476 0.553243018563863 2.214377307438196 2.1365178403084797 0.5987940888451598 0.21074591188223396 2.3990460883723226 0.15246238801633025 0.20037295948419184 0.12956052911859012 3.1493148866782987 17.325819135323577 24.30505733678074 24.49809014606146 9.470593033254087 1.7675931340898572 0.7481238150108038 0.7375535088526564 8.178910598173768 14.689315222831507 5.365083821070599 24.542489391657796 8.190326036751586 5.701785383133456 0.10277158654766332 0.4915279387306069 3.9194090884119626 12.203671292671508 0.13586813701406275 0.08495086531526062 0.08598254983401722 5.770552232814282 0.08739059994007715 0.08454103870158644 0.09184113462017965 5.024237165798489 0.08426057320439365 0.2111197482224992 47.87837526861986 47.82698951471596 11.857090001799417 0.1290917208688319 0.6721467612522941 0.16762874145793227 0.0941792971489982 0.08681936523612507 0.08722395327056405 5.698921718563852 0.10660785395828537 7.422211097333145 0.09908429235330889 5.368580574240183 6.604646666984273 0.835186005998727 24.507353868134963 0.09536544753533645 27.684603661646786 1.135712244750134 0.12627170166068957 9.237923589000834 2.1153668458895654 0.2815542672438916 0.12636213161954826 0.08376941423715559 0.0838004977436289 1.7076063695755697 9.511041829791127 1.1965298493144942 0.07537379345132646 0.1495752773954069 5.408578430343097 5.729033218740775 22.45802307928571 0.13862424736717105 1.266040980922797 3.8572195162281537 3.5190375020767863 0.151144361553415 3.6875098529784007 19.58480852180903 0.10156372851999608 0.5537529908599349 0.554430843899883 17.867323501908146 12.187415212483169 1.5748650694325523 6.613851165334535 1.0809817202012384 1.0968261943640927 0.23366149246198298 5.702934998412789 0.4425737869935657 2.3063281075838686 2.1865633427861466 19.40778737031263 2.0565933985360894 17.811254357940957 0.13296978767454454 23.92390118575227 8.166041622841796 0.08976197726458415 0.3367850215885574 1.6490506499864332 0.138863633825468 0.3118690012873625 0.09044266720361946 3.924532426963861 0.3114547859608933 0.7560771907820664 0.8314658504632553 0.8319712219688625 0.3169168007391404 44.18941110248425 44.32420615341071 0.9781250491217697 0.23947784037151496 1.0026327677700855 0.31019297031371684 0.6680083134758263 0.8956306058432464 0.8968048074484416 0.7301101422142504 1.703548517117306 1.1745631639321514 27.620335503673825 1.002418313690419 1.0042753284597867 1.1960228695924087 2.029195305355971 1.3996716703932928 6.031619261067765 0.5338115488832184 0.48682618924118826 3.2357862771802144 0.09022492634048099 0.08953400864445121 1.9735450334782256 0.35068474224253476 1.997351114314537 1.9829073639692225 1.9621145681741288 0.989204616542608 0.9921016665509446 1.7196367802573016 0.5786455900269923 1.8485243968706873 0.5500563056884528 0.54698886131647 3.9381936665330755 0.6783883909819096 0.3404921163028197 0.31893801732237814 0.3167134232702124 2.310659644629708 6.131319725391282 0.302053371186455 4.030045617088605 0.7824685282131297 0.7374722132020959 1.3304029122414351 6.621952108512961 2.8454416269746745 0.9314426114949487 0.933997731812351 0.9402129063034506 1.2682407224358956 1.312834962798857 4.828070332354387 32.742997041267245 3.411055661128696 1.9072018849413865 2.192358043205531 2.042844938356742 0.4156586827867629 3.4064577520682207 1.7497610508218449 0.6873771042059635 2.9394142591046912 3.0030037566711263 0.356279290282152 1.626698939696256 6.04465977260659 5.2538595422284935 4.568298792766843 4.515568580702629 6.558807147804552 4.258280355413393 2.2371178037064707 2.1370528126438213 2.5756270238747336 2.5656030390801825 0.28575287843681735 4.042020885333938 7.51222220801383 5.3240362650010145 4.0264568975600055 19.88751326094861 5.243000954185868 0.3097480490014741 4.9580052418013265 20.018440867309902 0.21277560750816607 4.508004243686816 3.2511466586622544 0.6109793887522664 4.22951693434343 3.2311746431591613 0.7259539999828543 4.153930248029779 4.648328480079326 0.21087476782852918 0.1763870367538329 0.7050557976536965 4.182339038660372 13.299934985995643 0.6486856309133331 4.3925404905781384 5.035957417903309 4.411444215489152 0.7088320966175617 12.176127932860128 4.381297773862625 1.6223860307306281 5.093705137745213 4.163702346909493 22.16360235275573 4.079774935700405 5.1913466136472195 0.4713303618806123 5.2712862649052274 0.06794328034123846 0.06927728781422568 0.28809195180089814 1.3236691384255843 17.80797040744184 0.1089840334363564 4.929262389062769 3.9466823154553365 0.636326379511858 0.09651284099989153 5.04013722856424 0.16828321348825215 0.12592864073459822 0.5318783802150323 0.0703281705808094 0.07005886901330612 1.0332850349719724 0.09486518549402598 5.212461417669681 4.76626558165122 9.501043105333526 0.6086070941236311 0.6760217675527751 0.797312380270235 0.18382810844476707 4.429492729663072 5.0528386801119485 0.6315623806204181 0.5836554373830083 0.7834958266280888 17.623858652845964 0.10078811758436226 0.2940070664299407 0.7884605381846357 0.6059741609327269 2.3448604524467496 0.3483622326286475 0.1914319300119669 5.843582949802681 0.2280234457039128 0.21600875879912357 0.7949763104076745 0.5036933301824815 4.342944406028752 0.10277717321872337 0.10297827833944281 0.8603071602478678 8.544848109516526 1.895037028299906 0.10179276586961901 0.42915474699059597 0.4286231924870473 1.0880249419824042 1.0920807956365546 0.8382126838371162 8.780184366999517 0.385881894957894 0.19506050633062408 8.877593330493324 0.4152758214048773 0.5579098333338688 0.10032917443203197 1.8303