# vtk DataFile Version 2.0
Really cool data
ASCII
DATASET POLYDATA
POINTS 5120 float
0.0 0.0 0
100.0 0.0 0
100.0 10.0 0
50.25 10.0 0
50.25 5.0 0
49.75 5.0 0
49.75 10.0 0
0.0 10.0 0
0.5000000004713866 0.0 0
1.000000000927485 0.0 0
1.500000001363928 0.0 0
2.000000001715368 0.0 0
2.500000002054665 0.0 0
3.000000002393964 0.0 0
3.500000002774895 0.0 0
4.000000003277256 0.0 0
4.500000003692882 0.0 0
5.000000003976668 0.0 0
5.500000004274332 0.0 0
6.000000004780162 0.0 0
6.500000005285994 0.0 0
7.000000005791824 0.0 0
7.500000006297656 0.0 0
8.000000006803486 0.0 0
8.500000007309318 0.0 0
9.00000000754453 0.0 0
9.500000007717295 0.0 0
10.00000000820231 0.0 0
10.50000000919386 0.0 0
11.00000001005358 0.0 0
11.50000001089247 0.0 0
12.00000001160647 0.0 0
12.50000001222332 0.0 0
13.00000001261813 0.0 0
13.50000001320723 0.0 0
14.00000001448328 0.0 0
14.50000001538463 0.0 0
15.00000001655659 0.0 0
15.50000001749263 0.0 0
16.00000001844256 0.0 0
16.50000001885125 0.0 0
17.00000001942646 0.0 0
17.50000002026536 0.0 0
18.00000002147896 0.0 0
18.50000002276195 0.0 0
19.00000002303186 0.0 0
19.50000002330177 0.0 0
20.00000002411291 0.0 0
20.50000002470549 0.0 0
21.0000000253501 0.0 0
21.50000002582124 0.0 0
22.00000002645197 0.0 0
22.50000002704107 0.0 0
23.00000002832406 0.0 0
23.50000002920459 0.0 0
24.00000003004349 0.0 0
24.50000003088239 0.0 0
25.00000003206824 0.0 0
25.50000003379531 0.0 0
26.00000003552239 0.0 0
26.50000003724946 0.0 0
27.00000003755407 0.0 0
27.50000003846583 0.0 0
28.00000003923187 0.0 0
28.50000003918259 0.0 0
29.00000004102069 0.0 0
29.5000000416202 0.0 0
30.00000004290318 0.0 0
30.50000004300656 0.0 0
31.0000000420691 0.0 0
31.50000004118022 0.0 0
32.00000004132176 0.0 0
32.50000004149453 0.0 0
33.00000004170198 0.0 0
33.50000004287395 0.0 0
34.00000004384817 0.0 0
34.50000004249437 0.0 0
35.00000004244509 0.0 0
35.50000004239582 0.0 0
36.00000004245755 0.0 0
36.50000004329645 0.0 0
37.00000004513455 0.0 0
37.5000000477498 0.0 0
38.00000005036505 0.0 0
38.50000005220315 0.0 0
39.00000005304206 0.0 0
39.50000005353401 0.0 0
40.00000005333207 0.0 0
40.50000005421954 0.0 0
41.00000005567601 0.0 0
41.50000005740308 0.0 0
42.00000005913016 0.0 0
42.50000006085724 0.0 0
43.00000006258431 0.0 0
43.50000006431139 0.0 0
44.00000006408864 0.0 0
44.50000006464304 0.0 0
45.00000006637013 0.0 0
45.5000000680972 0.0 0
46.00000006982427 0.0 0
46.50000007155137 0.0 0
47.00000007327843 0.0 0
47.50000007472796 0.0 0
48.00000007472724 0.0 0
48.50000007551063 0.0 0
49.00000007675892 0.0 0
49.50000007837843 0.0 0
50.00000007921737 0.0 0
50.50000007611497 0.0 0
51.00000007266216 0.0 0
51.50000007051736 0.0 0
52.00000006870559 0.0 0
52.50000006549217 0.0 0
53.00000006532495 0.0 0
53.50000006340217 0.0 0
54.00000006157653 0.0 0
54.50000005975088 0.0 0
55.00000005792525 0.0 0
55.50000005615513 0.0 0
56.00000005402418 0.0 0
56.50000005272938 0.0 0
57.00000005175028 0.0 0
57.50000004992467 0.0 0
58.00000004809904 0.0 0
58.5000000455934 0.0 0
59.00000004519715 0.0 0
59.50000004296908 0.0 0
60.00000004114344 0.0 0
60.50000004036905 0.0 0
61.0000000388123 0.0 0
61.50000003797199 0.0 0
62.00000003731208 0.0 0
62.50000003570157 0.0 0
63.00000003389675 0.0 0
63.50000003122457 0.0 0
64.00000002933822 0.0 0
64.50000002551418 0.0 0
65.0000000194697 0.0 0
65.50000001766836 0.0 0
66.00000001634231 0.0 0
66.50000001490875 0.0 0
67.00000001295126 0.0 0
67.50000001159053 0.0 0
68.00000000965386 0.0 0
68.50000000539964 0.0 0
69.00000000128068 0.0 0
69.50000000200856 0.0 0
70.00000000029395 0.0 0
70.49999999907897 0.0 0
70.99999999758295 0.0 0
71.49999999571567 0.0 0
71.999999994433 0.0 0
72.49999999486944 0.0 0
72.99999999363362 0.0 0
73.49999999042018 0.0 0
73.99999998851476 0.0 0
74.49999998793812 0.0 0
74.99999998650452 0.0 0
75.49999998433195 0.0 0
75.99999998407449 0.0 0
76.49999998046903 0.0 0
76.99999997858791 0.0 0
77.49999997992639 0.0 0
77.99999997841302 0.0 0
78.49999997601142 0.0 0
78.99999997594827 0.0 0
79.49999997767536 0.0 0
79.99999997940243 0.0 0
80.49999997943296 0.0 0
80.99999997760733 0.0 0
81.4999999745049 0.0 0
81.99999997152742 0.0 0
82.49999997199166 0.0 0
82.99999997233094 0.0 0
83.49999997405803 0.0 0
83.99999997578509 0.0 0
84.49999997678707 0.0 0
84.99999997698411 0.0 0
85.49999997662951 0.0 0
85.99999997813454 0.0 0
86.49999997747813 0.0 0
86.99999997647127 0.0 0
87.49999997564485 0.0 0
87.9999999738192 0.0 0
88.49999997199359 0.0 0
88.99999997016793 0.0 0
89.49999997110397 0.0 0
89.99999997227594 0.0 0
90.49999997108868 0.0 0
90.99999997217738 0.0 0
91.499999974182 0.0 0
91.99999997525684 0.0 0
92.49999997841331 0.0 0
92.9999999807649 0.0 0
93.49999998216586 0.0 0
93.99999998337596 0.0 0
94.49999998384015 0.0 0
94.99999998456803 0.0 0
95.49999998665594 0.0 0
95.9999999888132 0.0 0
96.49999998808393 0.0 0
96.99999998926977 0.0 0
97.4999999914687 0.0 0
97.99999999325128 0.0 0
98.4999999933824 0.0 0
98.99999999655279 0.0 0
99.4999999981827 0.0 0
99.99999999999999 0.5000000006396631 0
100.0 1.000000001299887 0
100.0 1.500000002317897 0
100.0 2.000000003487696 0
100.0 2.500000004137077 0
100.0 3.000000005358917 0
100.0 3.500000006945049 0
100.0 4.000000007906681 0
99.99999999999999 4.500000010498953 0
100.0 5.000000011460584 0
100.0 5.500000009022157 0
99.99999999999999 6.000000007850081 0
100.0 6.500000006348403 0
100.0 7.000000002851798 0
99.99999999999999 7.499999998487827 0
100.0 7.99999999873822 0
100.0 8.499999997583487 0
100.0 8.999999998597158 0
100.0 9.499999999107754 0
99.50249999664918 10.0 0
99.00499999876271 10.0 0
98.50749999530431 10.0 0
98.01000000040158 10.0 0
97.51249999884101 10.0 0
97.01499999819632 10.0 0
96.51750000018497 10.0 0
96.01999999953335 9.999999999999998 0
95.52249999699089 10.0 0
95.02499999584315 9.999999999999998 0
94.52749999523319 10.0 0
94.0299999934887 9.999999999999998 0
93.5324999924381 9.999999999999998 0
93.03499998875768 10.0 0
92.53749998517786 10.0 0
92.03999998264233 10.0 0
91.5424999825597 10.0 0
91.04499997932336 10.0 0
90.54749997866136 10.0 0
90.04999998153818 10.0 0
89.55249997951961 10.0 0
89.05499997562407 10.0 0
88.55749997417101 10.0 0
88.05999996892585 10.0 0
87.56249996670954 10.0 0
87.0649999651871 10.0 0
86.56749996280423 10.0 0
86.06999995614703 10.0 0
85.57249995610951 10.0 0
85.0749999505278 10.0 0
84.57749995115991 10.0 0
84.0799999490754 10.0 0
83.58249994831624 9.999999999999998 0
83.08499994748769 10.0 0
82.58749994242991 10.0 0
82.08999994481754 10.0 0
81.59249994848538 10.0 0
81.09499994708784 10.0 0
80.597499943796 10.0 0
80.09999993969228 10.0 0
79.60249994018211 10.0 0
79.10499993698046 10.0 0
78.60749993380307 10.0 0
78.10999992986937 10.0 0
77.61249992909634 10.0 0
77.11499992722001 10.0 0
76.61749992855293 10.0 0
76.11999992753704 10.0 0
75.622499928183 10.0 0
75.12499992864855 10.0 0
74.62749992538446 10.0 0
74.12999992733147 10.0 0
73.63249992597903 10.0 0
73.13499993379288 10.0 0
72.63749993446315 10.0 0
72.13999993679872 10.0 0
71.64249993910654 9.999999999999996 0
71.14499993902395 10.0 0
70.64749994084953 10.0 0
70.14999993420616 10.0 0
69.65249993689218 10.0 0
69.15499993857205 9.999999999999998 0
68.65749993687265 10.0 0
68.15999993893418 10.0 0
67.66249993663806 10.0 0
67.1649999371383 10.0 0
66.66749993844344 10.0 0
66.1699999432059 10.0 0
65.67249994241897 10.0 0
65.17499994397048 10.0 0
64.67749994295106 9.999999999999998 0
64.17999994384685 10.0 0
63.68249994625879 10.0 0
63.18499994575982 10.0 0
62.68749994432067 10.0 0
62.18999994695464 9.999999999999998 0
61.6924999500223 10.0 0
61.19499995449505 9.999999999999998 0
60.69749995735798 10.0 0
60.19999996026607 10.0 0
59.70249996208818 10.0 0
59.20499996359457 10.0 0
58.70749996309563 10.0 0
58.2099999659447 9.999999999999998 0
57.71249996743375 10.0 0
57.21499996891936 10.0 0
56.71749997135385 10.0 0
56.21999997508937 10.0 0
55.72249997649861 10.0 0
55.22499998164448 10.0 0
54.7274999841882 10.0 0
54.22999998632081 10.0 0
53.73249998912996 9.999999999999998 0
53.23499999151503 9.999999999999998 0
52.73749999652731 10.0 0
52.23999999229871 10.0 0
51.74249998848641 10.0 0
51.2449999934588 10.0 0
50.7474999992378 10.0 0
50.25 9.499999999293099 0
50.25 8.999999997909656 0
50.25000000000001 8.499999995624155 0
50.25 7.999999996044826 0
50.25 7.499999995424663 0
50.24999999999999 6.999999997562707 0
50.25 6.499999996925198 0
50.25000000000001 5.999999997536689 0
50.25000000000001 5.499999999518613 0
49.99999997773051 4.999999999999999 0
49.75 5.500000000741595 0
49.75 6.000000002142386 0
49.75000000000001 6.500000001270688 0
49.75 7.000000001804115 0
49.74999999999999 7.500000002059986 0
49.75 8.000000002437291 0
49.75000000000001 8.499999998521153 0
49.75000000000001 8.99999999830865 0
49.75000000000001 9.499999996968576 0
49.25249999786197 10.0 0
48.7549999973858 10.0 0
48.25749999407857 10.0 0
47.75999999293629 10.0 0
47.26249999277931 10.0 0
46.76499999289642 10.0 0
46.26749999384968 10.0 0
45.76999999350534 9.999999999999998 0
45.27249999177671 10.0 0
44.77499999060667 10.0 0
44.27749999031091 10.0 0
43.77999998939067 10.0 0
43.28249998829694 10.0 0
42.78499998627341 10.0 0
42.28749998489519 10.0 0
41.78999998481454 10.0 0
41.29249998253426 10.0 0
40.79499998166953 9.999999999999998 0
40.2974999819844 9.999999999999998 0
39.79999998116129 10.0 0
39.30249998198269 10.0 0
38.80499997961915 10.0 0
38.30749997822706 9.999999999999998 0
37.80999997613414 10.0 0
37.31249997439162 9.999999999999998 0
36.81499997273237 10.0 0
36.31749997263785 10.0 0
35.81999997124576 10.0 0
35.32249997026999 10.0 0
34.8249999698424 10.0 0
34.32749996920663 10.0 0
33.82999996670431 10.0 0
33.33249996713021 10.0 0
32.83499996547442 9.999999999999998 0
32.33749996451255 10.0 0
31.83999996458456 10.0 0
31.34249996385859 10.0 0
30.8449999633061 10.0 0
30.34749996205277 10.0 0
29.84999995949494 9.999999999999998 0
29.35249995697874 10.0 0
28.85499995397682 9.999999999999998 0
28.35749995227942 10.0 0
27.85999994906238 10.0 0
27.36249994887418 10.0 0
26.86499994735372 10.0 0
26.36749994535619 10.0 0
[...]
CELL_DATA 4888
SCALARS flow double 1
LOOKUP_TABLE default
3.216768460078599 2.975250226248674 4.047517981613045 16.41134276418014 3.7974099399434835 21.63208262484899 3.4628000988129015 0.016729365252694865 0.14746591094271097 2.226497067721306 0.23928415654539195 5.127788118058048 0.02520983607218161 36.727496785769816 19.53484506055837 1.6840772930081298 0.07392374812289854 4.803862295939679 0.38515282327982636 31.315150675973136 2.5833873305625707 35.546399713547856 4.379915093835157 0.09205830648822957 0.19113133169545352 2.816341169695323 1.9865833122330152 49.09032691116273 5.348208057072132 0.08763588841882644 49.36429433685714 9.453299245354767 28.79820959310014 3.518609851720439 81.67682358354467 10.990162079816342 56.611450157538414 1.504345517578135 19.123015332146228 6.073668369968985 171.27202453320623 53.8794813692936 62.53867771752088 0.12590196818611138 2.7195979951294587 69.59172627477298 0.1129653281713662 0.6446464007902106 12.820314019258708 0.41661745544020473 21.857021264694442 5.550183216719472 1.3175536868238353 1.3604715406159997 0.03252268600814888 66.78433905564071 143.30496925301367 69.32484750231964 2.6106630158833473 4.747221544273558 77.65911501405333 0.4507418058268277 0.09370180577168856 0.09683747992876746 26.4962160935695 0.5726837458683995 0.07764777079512865 42.527896327172705 0.5295664328322356 145.76696859104865 4.754330313712601 3.226142595211839 31.476426716372547 156.8137294461472 0.10086068589977576 2.382063694884645 21.075138286260085 46.30565674982935 7.293229794567383 0.14289014011715642 4.9063915384430326 0.08851306594899506 10.552157411362268 0.1589651558659039 7.946184163380137 15.736182477063375 0.029501357944089732 0.1396574152947563 7.1068870728346845 0.6609812357928339 1.0767484121256599 9.833844875379429 0.09630368571444443 40.39314319627199 0.03591888747525409 71.78461602099281 0.18957718734327594 160.89025254211907 0.17020539793749342 23.112680513772588 19.40687112640531 0.14863297414361365 0.4044891903440361 0.4880944806466295 2.282409143928235 0.47306997373746307 33.89468172208398 1.086991894259718 0.10687715082150703 6.3739665711639715 11.128885446482656 0.9211964245822593 1.2585290217893945 4.273298769737286 5.027329398769759 3.0423633748774033 11.327224196476928 3.3841408686855186 106.4456770448376 1.6009091399979516 53.36729016935471 26.906264455548694 0.25566582756405576 0.5103828153629117 37.74903408522941 0.17544539636888523 10.644568643037106 16.949718578748126 12.20990688076625 2.438514605403433 44.37407491348174 52.314184497232844 5.294184240340891 7.137524611970932 0.11299625186437315 1.4481362812785994 13.475255249343899 0.23307734136913488 130.33947299258986 0.6889304967475696 5.77266101268562 10.49176917772876 15.683201215269728 10.404718310132006 0.10671234008754914 59.482895608529454 8.784225932893898 1.8340968147213257 15.667515396219192 1.5647596595259532 0.7293033412889394 0.9784579995379111 32.74540962752568 19.17374825278423 12.083974517116777 15.498265520520846 82.76922951504368 0.20539190467160054 6.207429615917063 82.12196681614935 1.1450323102989655 26.10439456117809 0.6246558292127997 0.07743307127526887 0.044921066017493995 70.92975733146157 0.05263810578037787 1.5350745770017777 5.558362026010065 33.94272584908845 0.09258552084029832 10.152450130706699 8.321917890665544 72.49416358108917 65.45294026170909 0.07841771455192674 12.560087003485213 0.11667141534579013 0.07841380662788697 11.96172989589834 0.16258411163438796 3.1049107981478983 24.699299995515066 0.8431018777190633 70.0145478494699 0.5348558949466706 7.288463302142479 2.611510359350928 0.09237269614747501 35.7700233837601 0.15453454256450236 48.35045815913651 13.570418852582403 39.52994447101361 0.23555098531946764 4.119153298421001 18.09393203177652 1.2425514905482897 0.4694509691307302 0.08822872119545046 190.22911595550872 7.198321325459864 0.0902346881019069 100.42770298543135 1.3393036047834486 2.4138964414593094 45.572757751282985 15.291436141176785 65.56301468279518 13.447621474821656 124.9960573037071 11.847003254634188 11.500051694434603 0.5121401098726506 15.559342078083349 56.59429295498746 14.532115071770487 0.05024654140792231 63.499623431216726 0.06891851506267381 50.93207120621757 9.037681800701728 0.2770807005323492 29.121884544776176 0.36337753921861515 7.6883871361734055 17.8020682316083 0.5286501274856894 6.068352672805299 0.6077022242012361 10.028871198416335 0.09816944663827896 66.42732370996634 83.7484219849246 38.424714460221765 0.627292959325499 57.8827329605445 30.870221630407936 81.56580822960251 17.777888295712877 2.1496941023365967 22.467444392449952 5.889854957562483 4.682757335143656 29.657693660978634 1.238047270244183 21.11535042367522 0.5750220856062147 73.36423539711777 55.52774957035012 0.4036654328349485 40.89289252372945 3.8205769381168433 26.512470320938114 26.481152000357728 0.08011941998687663 0.374453220073304 30.147598921801396 1.4038872352067004 20.638100068294317 53.456205054565594 7.70836914480592 0.06026309758348345 1.35634908823875 14.171369769152676 6.278929228111299 4.595221800501228 0.0827074293629592 0.3465661376907684 64.48991202243573 0.8416345929563565 20.01115338202489 0.1566348169366744 25.16489551662988 10.497292946252086 20.77245619144753 14.820230026326243 0.0736918438452714 25.06702031456234 0.06714756364077154 0.06489377800802583 56.71518570502582 0.1107809842283954 0.11301470255483755 14.953525522687867 26.059959460258163 0.24839856088308374 27.536983073116623 1.6410114160751088 9.025032121999221 0.3464992371632075 34.9306025761436 31.524029107031144 1.12641083519101 0.23175000889662992 1.5908328002022316 3.6555595006630246 4.040132209978171 2.146135130759632 24.626822984310046 13.874250885648616 9.246026109628133 12.427846830036835 23.533706480834443 0.11597271947592701 70.69338351119819 25.56085354681191 64.6348213687241 54.437332486766266 0.06943563998385292 0.4375717794098579 26.801577819469465 72.45894863393085 5.398415235828031 17.912412896224097 34.0030678828451 1.8081140356712162 19.298674868998724 0.03957197721639283 0.08022344367148869 9.577379111280925 11.699334305413947 1.697644298401542 16.196916113884846 67.04190796412001 0.10904673273108259 8.427719426199772 80.4485395355037 0.4356791210929597 0.12251321885941688 8.962281335844509 31.9778132331115 45.73244689721246 0.16122428855199722 106.78536806974611 5.503406346398391 83.91980243231733 2.7049978606836675 91.3753142087589 168.32327955158073 20.368331748047545 45.748273938222034 22.710816869910584 36.21260276463783 122.4225213432154 17.304483998138306 23.391923035719493 9.76569701474124 1.0419434984450782 14.74518215830906 18.903295991990685 80.20186180054557 25.71828489217978 58.07340567145311 74.3342783393753 22.430354557299474 0.13922173899555615 0.024719719012327224 68.54253867703284 35.55732502822851 61.297884155258956 13.317670990720261 4.14282818159876 19.50565980494467 27.381432316261265 41.61502548254658 10.329445392098176 79.81959450663017 3.78893690425823 77.60861740922554 0.13048567133584324 55.14518829868856 79.51284893828594 39.3205487749778 72.64593371679648 21.596986618808707 1.3526004000835237 119.64511860949763 5.77892699861136 39.31572796387563 14.341880496293074 75.60213537633805 81.41656553312865 0.5545069739155281 15.519915028330868 0.08122647257827649 48.040714141453726 0.02472035615467442 78.73370138264644 32.17900831990377 13.11409087005734 89.4132765320892 20.109454010620503 1.972976030125295 1.4530212287098987 17.866230518581432 0.10143376421736384 0.13112275326832634 6.7551215048454125 56.357463253358425 8.342936836460975 0.012930318622156017 75.43928214319884 20.198994536931842 0.1670832578440166 21.46578359868921 22.442334626320687 23.406394007042806 100.0110336732289 19.720501127767196 6.054324001334323 12.165301449909933 3.231974073900097 9.798766403740846 53.23837326726135 13.284383690888767 45.46199161488006 117.04570779022386 154.20207423502185 10.521273765873246 7.087771756799897 5.163201140843439 50.114857889292026 85.67531266431106 78.33914829487938 12.31963296893254 28.69722341594044 31.031470778850114 0.6939582007425154 111.49075400907017 5.625545598233762 36.4293660898637 7.578929417639942 29.423877955461077 186.23672594833363 28.755472152810075 8.586603278861233 17.328286496788493 5.1541983764246995 8.7715717733323 18.502537083824887 3.4972010203866204 33.4633778160981 0.6406337755990275 14.67934440890934 1.8016870685639916 30.753563715715064 11.371373302152778 43.553293034537184 127.66768749864367 119.31451754412662 14.48736620186383 2.7810574611462364 0.030954804848200634 0.053340123617319254 3.7545349051826156 27.318212954928345 1.94974478071489 3.2932598448344303 0.025239434240436554 69.12173989230158 6.553948542539387 1.5810412676098768 18.24705703086389 2.5871225596823986 81.19357509466153 64.41428213311582 0.1541514959367123 67.63286247194873 65.67995416532345 85.70325424176411 7.4200966463601645 4.43572671431153 5.809656668255004 71.91576583900869 67.61432847058875 72.9809015662566 68.25947006045972 2.0193865620144367 39.47440857398986 4.786688806266539 36.44679440005259 1.724209128700613 1.2540275574869932 105.40699833792029 7.645185919401845 40.64323800660211 36.483867044069534 24.351031865757697 0.9049730400291242 19.318747794065754 79.08820260442869 1.3538458484131721 57.775781996475935 16.36569128899992 3.066656305486844 47.43331325086 53.105468888666955 141.2893064988926 21.075344293655984 1.161439368119287 3.2414775793947794 0.9888009641270762 105.5266464498309 2.3852763771262606 6.059620672295519 74.3938103745609 0.8447914244659532 3.3778061796173957 0.07669558010873018 0.45308975365135845 117.84282820357357 10.615253524264201 32.348454231166215 21.293946769480755 97.51441257779085 5.216654244376005 32.746217500690996 0.10943779512157722 0.6674850457507313 2.20327647551433 0.6365319295076424 0.9157980764664027 37.98515330939651 19.388310377486942 0.7830580362643835 50.62853718570051 51.06457254403792 1.5870758971643528 0.5703682650924033 92.75138573169515 45.50112460725993 17.917423940081225 6.559546332841439 14.095560659587 15.46589130754183 75.82263575602474 1.4456848386367611 0.037525581557792974 0.6194878074062 21.267852601915603 0.4503266711380703 3.527041986960362 72.88765242474997 70.1116021088066 1.0713449800194483 0.10754164214783109 51.9951852313095 114.58338937048278 0.5318572483740827 0.3835364227149279 82.02211697046447 45.2232811838754 1.1598123059202101 77.22842547441174 5.587309674641289 0.13528196198847559 85.65952897195912 63.57328812842841 15.270871011613943 0.7812300083277668 4.4585091817475675 46.72306075799861 9.335435671809439 54.19582551377467 54.53018621835716 0.7242944503616146 2.200372111203257 59.48382510331952 1.8660454430427837 9.49597429247837 51.25232361706099 1.1501253866569694 27.029524142519502 0.41927749175624973 54.63878687487775 1.46469549867619 0.3034627575871343 108.97961454104762 8.16658536579661 40.75857213732929 0.5272885775496454 3.7534127839651883 62.79538049854178 1.2532148684250457 3.0008768657152243 51.44479161475493 74.2819637575945 0.8889262987243378 7.1903951132652715 0.49047373125186244 47.081892173383615 0.8353765312843862 44.460088072036775 42.67411970842003 2.5769347795272837 20.458538489389436 0.9911588875402608 0.35558386609649273 2.0719840820586257 15.803311116042536 30.81842670084939 0.1474426531212104 0.847426257073799 0.12066552525211797 0.8107549717737901 0.11575574958659288 51.6417725861869 0.6701794484083554 1.7080738793159176 1.3530599696524246 0.1124482219149393 0.33147968019054225 11.000419068418156 45.51251959896754 39.51280754385243 39.2472649125947 17.791075893591998 0.5735150548222439 0.2391646638034391 0.7838180299137827 4.890522056293912 42.404340794284224 48.53308345208208 92.89839534082374 61.48003453873774 0.10591145300603602 0.7530251505948641 27.757480355046003 33.70516896752366 1.0717750481370063 0.9139297978057719 33.91109203784882 34.16921959516731 40.85915922252839 0.7222480880504152 19.389211181975682 51.337404319971924 42.525488313760555 43.54806761485446 30.854694095927613 93.67616790128692 0.4538641758063729 51.825333360346974 0.4208287704624121 34.87854416985449 39.46699575012891 37.5250293967759 0.35991083310698885 0.6172305565013819 49.749336074766504 0.38802835684901105 0.30584971591791354 0.4873586219448304 0.08979397735933393 38.39845917075973 0.3018199247101133 0.4164070826177592 0.2304576292374156 0.1368679734462303 0.30685537461979495 55.12885222859058 65.63832621986558 0.24626156701446733 0.2851924104480239 207.0284800582403 42.179589718513846 0.20302486044980006 0.25820247022767556 41.0687450311253 39.22972076986804 0.12832252761450436 0.26369881897677633 29.035031679226165 0.13580016210360477 0.3130392083445532 49.33734381626649 0.2804113425686476 0.32856960968792953 24.84512762719394 29.731098279179953 17.86690104587069 23.398965527745183 0.22077232158708804 0.29692570277043534 21.229097393993147 30.274905408891364 0.1879053861120435 26.49110008190149 11.22899952769742 0.10550445220573781 27.409248591974986 0.08688707167978676 56.449924161334444 48.689454327317954 35.78320360133874 38.688653346694075 25.600889953050714 0.14677973644412284 70.19101481504612 39.42763414416356 49.49636373861396 45.78014284190079 0.12551948008974653 0.021518090583770258 0.020450900427841767 0.09405314016003592 0.15975347202337525 80.70675925383813 0.3416357964761365 46.24850139885345 0.10654700211331626 0.1727442605700905 0.1085481847125896 33.417783990552884 37.41381633584513 69.76866878102965 0.19478902807592924 58.737060038397985 0.1690800042814154 0.18258025073056275 16.7881128055999 2.83448502501765 59.605741038283185 0.09832855031730385 0.15595795578635163 0.11456924546586843 66.2175964652465 0.044257032078699333 29.27708195124294 0.09611529281194257 75.09638782088676 79.71687600538283 0.10534100602751688 0.11536075465527147 8.327925112290462 5.5096143754004805 136.7746253150306 47.109496983866386 29.161584904650898 29.238543993768655 0.14775067928238994 0.08839687282611594 39.95571981015455 49.00778245742069 0.08879688690214736 22.445216840596956 28.34302573189192 0.07650036762694742 8.005676503267278 43.88865945223169 0.08181229715150608 0.3270159288406987 39.868742941867104 67.48732284066897 0.12442574029685326 26.940875023403063 0.12824185650297426 16.758292123974414 41.60454706560536 15.928745934872126 0.11444790734686726 28.52163587762378 25.051781360026148 24.343322401543805 29.914284933851842 9.820132506729013 7.397320878680643 48.103452209157545 31.48987629242088 0.387987833794107 0.7445523114434502 32.24175676982609 31.602052067956855 11.663866924565928 24.805225118495763 21.86482776234484 24.097540434810426 0.07482616685506013 9.232273366963522 44.75409473780572 45.07897463749754 11.565205307040179 0.10339658776819668 0.08591165990051959 23.133908648949244 14.446045458197423 33.6323998731057 0.3995054889764956 17.550267951894014 10.35668153464584 1.9152638753037792 39.03795231716054 0.1102304810732273 0.7560123072844267 0.0654048850138852 0.14753616916455067 2.181165325023517 15.36110344552885 16.34415885774943 0.20651057050263405 12.303828358441422 0.5073298497168249 0.09204310296087241 30.404156811673 0.2261266313789233 0.577320651796609 32.24314343278466 0.11570330264615246 26.457534620254258 13.593930925253959 46.627166508030044 73.04712827778847 113.78309233657086 0.0832790397492567 20.316298371085878 0.10276390784895427 1.1814770700167125 60.32422022525122 33.71914800257052 3.5055779578537045 0.4206548828826516 19.710788935796668 25.96526370141175 1.0648629521167854 0.06978137678693268 35.25252246204033 6.190952259251489 0.13461806889509825 0.7933752460919834 0.15611459856913146 25.726446705820525 0.5341393087881033 40.44885332357888 0.09804436577800375 0.4460376853486305 1.9702516659879052 0.05769947729776659 0.08357679097356774 0.2385825585960197 1.9758032781104977 42.271128873790076 1.2998303690173707 0.19118998347617502 0.3400127253677897 0.12308200446883831 0.22147281066357574 13.83160221933349 0.6435328180136429 14.081570435643993 2.305183533067659 1.323681737406933 1.8215846494337526 1.2793694881235644 0.07706701297337665 0.8429611031010059 2.823596479093448 0.06069311887021662 22.62079163498361 0.11980611102217492 4.267486832337163 24.776592918484862 0.16638852769731008 3.030585550418793 26.880447299167805 0.0743381985060197 0.10538931645872515 0.1420794007929488 0.5660836623626856 0.28903405278008115 0.25338172139684184 0.47725950643609694 14.366931159496847 1.043164488581468 0.22273096542199738 0.3440410622430724 0.1439611261221423 62.223845989028135 9.617712100614016 0.10240819313097153 36.99113448848491 75.9396020631927 36.91082065582404 0.18447729099647506 12.129970611161882 0.07740588676408212 3.608997504254758 3.3048574818713634 1.0096598488727528 24.275521806174883 0.10895049962009944 16.99830053216566 0.4852929506050955 1.0621990902120513 0.22214393842205302 0.06933074750197968 0.07856648430109436 0.34782953856003807 0.8137580700188575 0.3583163686396677 0.20191975180940377 0.1305133299501053 8.342299407989717 0.6772831950085171 4.608093526485092 1.6837028300412336 0.8746312854727094 0.0729107791639715 1.4598930637889678 67.71854438966747 2.23415747875169 0.30489255127119114 31.26298705689278 2.3052312912202173 0.4307522287695821 1.6874070664275833 0.07952140987055628 1.4995693085838584 0.2530314580535892 2.003633277880464 1.201566114586095 17.95018534077872 1.555813431797231 0.3777227193784129 13.950075384472076 7.755743672406864 15.76671230090914 0.11905475121929833 0.18199284576030517 2.691764970651219 17.113692774531287 2.034644707621555 19.364138814848275 0.07715380099489857 3.7323984206745577 2.2494992491100994 0.22606605814841807 0.10709920420932363 9.530064879605371 3.691180674109951 71.20375553293131 2.9456010394616654 0.598675183006289 2.1259977702367396 0.10856850362650272 1.378211868647225 1.2539128573442826 21.325099597162023 0.13777149823041146 19.864742222064464 14.800726915145388 0.16041392587559353 6.893674980824184 45.21186225773782 26.957199990649436 13.7288814830969 0.1060543404110817 5.870859327711807 0.44363522523855325 13.08887256420088 22.504022794293714 22.61800037839649 0.9459369464347732 0.11824843443356192 1.0735244605038858 40.291361652016874 0.7097753253821737 1.038553683773271 0.4496768032116145 0.18638628813517186 0.9845033324044165 0.20557505459420902 29.416670326879935 0.20311931532438604 0.32091183345804536 6.311845595858329 19.273869871225905 0.06299050895960064 3.1507450218241475 22.30465318071387 13.286518230742383 0.10041751295811116 0.21920481928884722 8.867769774483078 18.19618859320502 0.07941285267672242 48.35136540042317 29.2926594442454 15.18217282382419 0.3375502101030459 17.98661569360722 0.10071036078974704 6.233094959625292 0.08396612317259113 6.443523864810437 0.08580676826554251 0.09644368209392902 1.9525317449836783 1.0903356294851319 0.20485524270279307 34.985824903642715 3.737908573942698 11.18915080490499 0.5040569210503874 6.30074261230848 0.12530310949706366 12.217133779413468 6.664085188947403 11.130415033630456 2.5226363680275443 1.129652786383788 4.8772315822573775 2.3158269757557894 0.5422225346215419 0.1579018320550826 0.2440846528298739 1.240654715744055 5.1118701773731265 0.2797475584888199 0.24981670420785523 55.45745955087868 0.28763904637946464 0.5668003020558195 0.4270051209591459 0.6298665635548025 13.324997176839442 1.0048271534849018 0.35475306549738267 68.7044454397227 69.83586852035552 14.888343023481747 20.10674365656987 14.640406305734572 4.018200082235961 0.14297761283427893 15.777864113305831 0.06793196079485442 0.08128763067580366 14.317762700070569 0.39507588393962073 0.5844716344169005 1.437236183323873 12.238444347120327 0.9830534507467356 0.8386551379537347 4.848362020217282 16.901134093171688 0.2894092030347466 0.1046222367769212 0.09299802543293116 12.625212176423478 1.6914575080568046 1.0149207052988047 0.06569484872646925 4.2398395819818635 2.5051609858285113 0.08006886830816991 0.562900062601584 1.5553758102221868 2.493532681947915 0.5146764067162765 11.011270303738169 2.098940842326