# vtk DataFile Version 2.0
Really cool data
ASCII
DATASET POLYDATA
POINTS 4789 float
0.0 0.0 0
100.0 0.0 0
100.0 10.0 0
52.5 10.0 0
52.5 5.0 0
47.5 5.0 0
47.5 10.0 0
0.0 10.0 0
0.5000000004713866 0.0 0
1.000000000927485 0.0 0
1.500000001363928 0.0 0
2.000000001715368 0.0 0
2.500000002054665 0.0 0
3.000000002393964 0.0 0
3.500000002774895 0.0 0
4.000000003277256 0.0 0
4.500000003692882 0.0 0
5.000000003976668 0.0 0
5.500000004274332 0.0 0
6.000000004780162 0.0 0
6.500000005285994 0.0 0
7.000000005791824 0.0 0
7.500000006297656 0.0 0
8.000000006803486 0.0 0
8.500000007309318 0.0 0
9.00000000754453 0.0 0
9.500000007717295 0.0 0
10.00000000820231 0.0 0
10.50000000919386 0.0 0
11.00000001005358 0.0 0
11.50000001089247 0.0 0
12.00000001160647 0.0 0
12.50000001222332 0.0 0
13.00000001261813 0.0 0
13.50000001320723 0.0 0
14.00000001448328 0.0 0
14.50000001538463 0.0 0
15.00000001655659 0.0 0
15.50000001749263 0.0 0
16.00000001844256 0.0 0
16.50000001885125 0.0 0
17.00000001942646 0.0 0
17.50000002026536 0.0 0
18.00000002147896 0.0 0
18.50000002276195 0.0 0
19.00000002303186 0.0 0
19.50000002330177 0.0 0
20.00000002411291 0.0 0
20.50000002470549 0.0 0
21.0000000253501 0.0 0
21.50000002582124 0.0 0
22.00000002645197 0.0 0
22.50000002704107 0.0 0
23.00000002832406 0.0 0
23.50000002920459 0.0 0
24.00000003004349 0.0 0
24.50000003088239 0.0 0
25.00000003206824 0.0 0
25.50000003379531 0.0 0
26.00000003552239 0.0 0
26.50000003724946 0.0 0
27.00000003755407 0.0 0
27.50000003846583 0.0 0
28.00000003923187 0.0 0
28.50000003918259 0.0 0
29.00000004102069 0.0 0
29.5000000416202 0.0 0
30.00000004290318 0.0 0
30.50000004300656 0.0 0
31.0000000420691 0.0 0
31.50000004118022 0.0 0
32.00000004132176 0.0 0
32.50000004149453 0.0 0
33.00000004170198 0.0 0
33.50000004287395 0.0 0
34.00000004384817 0.0 0
34.50000004249437 0.0 0
35.00000004244509 0.0 0
35.50000004239582 0.0 0
36.00000004245755 0.0 0
36.50000004329645 0.0 0
37.00000004513455 0.0 0
37.5000000477498 0.0 0
38.00000005036505 0.0 0
38.50000005220315 0.0 0
39.00000005304206 0.0 0
39.50000005353401 0.0 0
40.00000005333207 0.0 0
40.50000005421954 0.0 0
41.00000005567601 0.0 0
41.50000005740308 0.0 0
42.00000005913016 0.0 0
42.50000006085724 0.0 0
43.00000006258431 0.0 0
43.50000006431139 0.0 0
44.00000006408864 0.0 0
44.50000006464304 0.0 0
45.00000006637013 0.0 0
45.5000000680972 0.0 0
46.00000006982427 0.0 0
46.50000007155137 0.0 0
47.00000007327843 0.0 0
47.50000007472796 0.0 0
48.00000007472724 0.0 0
48.50000007551063 0.0 0
49.00000007675892 0.0 0
49.50000007837843 0.0 0
50.00000007921737 0.0 0
50.50000007611497 0.0 0
51.00000007266216 0.0 0
51.50000007051736 0.0 0
52.00000006870559 0.0 0
52.50000006549217 0.0 0
53.00000006532495 0.0 0
53.50000006340217 0.0 0
54.00000006157653 0.0 0
54.50000005975088 0.0 0
55.00000005792525 0.0 0
55.50000005615513 0.0 0
56.00000005402418 0.0 0
56.50000005272938 0.0 0
57.00000005175028 0.0 0
57.50000004992467 0.0 0
58.00000004809904 0.0 0
58.5000000455934 0.0 0
59.00000004519715 0.0 0
59.50000004296908 0.0 0
60.00000004114344 0.0 0
60.50000004036905 0.0 0
61.0000000388123 0.0 0
61.50000003797199 0.0 0
62.00000003731208 0.0 0
62.50000003570157 0.0 0
63.00000003389675 0.0 0
63.50000003122457 0.0 0
64.00000002933822 0.0 0
64.50000002551418 0.0 0
65.0000000194697 0.0 0
65.50000001766836 0.0 0
66.00000001634231 0.0 0
66.50000001490875 0.0 0
67.00000001295126 0.0 0
67.50000001159053 0.0 0
68.00000000965386 0.0 0
68.50000000539964 0.0 0
69.00000000128068 0.0 0
69.50000000200856 0.0 0
70.00000000029395 0.0 0
70.49999999907897 0.0 0
70.99999999758295 0.0 0
71.49999999571567 0.0 0
71.999999994433 0.0 0
72.49999999486944 0.0 0
72.99999999363362 0.0 0
73.49999999042018 0.0 0
73.99999998851476 0.0 0
74.49999998793812 0.0 0
74.99999998650452 0.0 0
75.49999998433195 0.0 0
75.99999998407449 0.0 0
76.49999998046903 0.0 0
76.99999997858791 0.0 0
77.49999997992639 0.0 0
77.99999997841302 0.0 0
78.49999997601142 0.0 0
78.99999997594827 0.0 0
79.49999997767536 0.0 0
79.99999997940243 0.0 0
80.49999997943296 0.0 0
80.99999997760733 0.0 0
81.4999999745049 0.0 0
81.99999997152742 0.0 0
82.49999997199166 0.0 0
82.99999997233094 0.0 0
83.49999997405803 0.0 0
83.99999997578509 0.0 0
84.49999997678707 0.0 0
84.99999997698411 0.0 0
85.49999997662951 0.0 0
85.99999997813454 0.0 0
86.49999997747813 0.0 0
86.99999997647127 0.0 0
87.49999997564485 0.0 0
87.9999999738192 0.0 0
88.49999997199359 0.0 0
88.99999997016793 0.0 0
89.49999997110397 0.0 0
89.99999997227594 0.0 0
90.49999997108868 0.0 0
90.99999997217738 0.0 0
91.499999974182 0.0 0
91.99999997525684 0.0 0
92.49999997841331 0.0 0
92.9999999807649 0.0 0
93.49999998216586 0.0 0
93.99999998337596 0.0 0
94.49999998384015 0.0 0
94.99999998456803 0.0 0
95.49999998665594 0.0 0
95.9999999888132 0.0 0
96.49999998808393 0.0 0
96.99999998926977 0.0 0
97.4999999914687 0.0 0
97.99999999325128 0.0 0
98.4999999933824 0.0 0
98.99999999655279 0.0 0
99.4999999981827 0.0 0
99.99999999999999 0.5000000006396631 0
100.0 1.000000001299887 0
100.0 1.500000002317897 0
100.0 2.000000003487696 0
100.0 2.500000004137077 0
100.0 3.000000005358917 0
100.0 3.500000006945049 0
100.0 4.000000007906681 0
99.99999999999999 4.500000010498953 0
100.0 5.000000011460584 0
100.0 5.500000009022157 0
99.99999999999999 6.000000007850081 0
100.0 6.500000006348403 0
100.0 7.000000002851798 0
99.99999999999999 7.499999998487827 0
100.0 7.99999999873822 0
100.0 8.499999997583487 0
100.0 8.999999998597158 0
100.0 9.499999999107754 0
99.50520833129099 10.0 0
99.01041666087612 10.0 0
98.5156249857197 9.999999999999998 0
98.02083331357014 10.0 0
97.52604164448525 10.0 0
97.03124997794463 10.0 0
96.53645830920668 10.0 0
96.04166664390928 10.0 0
95.54687497910336 10.0 0
95.05208331996423 10.0 0
94.55729165345251 10.0 0
94.06249998217032 10.0 0
93.56770831377932 9.999999999999998 0
93.0729166460822 10.0 0
92.5781249762167 10.0 0
92.0833333087509 10.0 0
91.5885416405912 10.0 0
91.0937499703498 10.0 0
90.59895830363573 10.0 0
90.1041666311103 10.0 0
89.60937496352882 10.0 0
89.11458329273813 10.0 0
88.6197916182756 10.0 0
88.12499995072305 9.999999999999998 0
87.63020828369093 10.0 0
87.13541661446149 10.0 0
86.64062494693785 10.0 0
86.14583327848902 9.999999999999998 0
85.65104160759714 10.0 0
85.15624993920615 10.0 0
84.66145827087297 10.0 0
84.16666660077615 10.0 0
83.67187493125759 10.0 0
83.17708326280875 10.0 0
82.68229159302997 10.0 0
82.18749992408964 10.0 0
81.69270825254722 10.0 0
81.19791658346236 10.0 0
80.70312492082483 10.0 0
80.20833325084368 9.999999999999998 0
79.71354158381155 10.0 0
79.21874991539165 10.0 0
78.7239582432999 9.999999999999998 0
78.22916658057567 10.0 0
77.73437491386156 10.0 0
77.23958324408278 9.999999999999998 0
76.7447915768772 10.0 0
76.24999990617324 10.0 0
75.75520824229253 9.999999999999998 0
75.26041657390152 10.0 0
74.76562490551053 10.0 0
74.27083324267063 10.0 0
73.77604158445669 10.0 0
73.28124992254202 10.0 0
72.78645825623265 10.0 0
72.29166659021244 10.0 0
71.79687492222624 10.0 0
71.30208325383522 10.0 0
70.80729158821978 10.0 0
70.31249992416559 10.0 0
69.81770825623717 10.0 0
69.32291658943633 10.0 0
68.8281249230692 10.0 0
68.33333325835002 10.0 0
67.8385415923298 9.999999999999998 0
67.34374992622286 10.0 0
66.84895825748488 9.999999999999998 0
66.3541665890939 10.0 0
65.85937492269784 10.0 0
65.3645832590773 9.999999999999998 0
64.86979159516765 10.0 0
64.37499992897398 10.0 0
63.88020826844706 10.0 0
63.38541660369896 9.999999999999998 0
62.89062493915325 10.0 0
62.39583327560502 10.0 0
61.90104161230254 9.999999999999998 0
61.40624994564627 10.0 0
60.91145828341353 10.0 0
60.41666662013996 10.0 0
59.92187495508831 9.999999999999998 0
59.42708328979091 10.0 0
58.93229162715342 9.999999999999998 0
58.43749996440027 10.0 0
57.9427083012134 9.999999999999998 0
57.44791663785309 10.0 0
56.95312497731174 10.0 0
56.45833331207216 10.0 0
55.96354164772158 10.0 0
55.46874998243863 10.0 0
54.97395832049508 10.0 0
54.47916665528435 9.999999999999998 0
53.98437499177226 10.0 0
53.48958332677839 10.0 0
52.99479166628041 10.0 0
52.5 9.499999999293099 0
52.50000000000001 8.999999997909656 0
52.49999999999999 8.499999995624156 0
52.5 7.999999996044826 0
52.5 7.499999995424663 0
52.50000000000001 6.999999997562709 0
52.5 6.499999996925199 0
52.50000000000001 5.999999997536689 0
52.50000000000001 5.499999999518613 0
51.99999999696858 5.000000000000001 0
51.49999999917601 5.0 0
50.99999999047203 5.0 0
50.49999998489924 5.0 0
49.9999999853199 5.000000000000001 0
49.49999998405788 5.0 0
48.99999997351511 5.0 0
48.49999997357149 5.0 0
47.99999998592707 5.000000000000001 0
47.5 5.500000000741595 0
47.5 6.000000002142385 0
47.5 6.500000001270688 0
47.5 7.000000001804116 0
47.50000000000001 7.50000000205999 0
47.5 8.000000002437293 0
47.5 8.499999998521153 0
47.5 8.99999999830865 0
47.50000000000001 9.499999996968576 0
47.00520833112171 10.0 0
46.51041666368901 10.0 0
46.01562499509984 10.0 0
45.5208333273202 10.0 0
45.02604166011881 10.0 0
44.53124999245482 10.0 0
44.03645832479084 10.0 0
43.54166665692446 10.0 0
43.04687498937612 10.0 0
42.55208332165431 10.0 0
42.05729165260253 10.0 0
41.56249998586374 10.0 0
41.06770831912493 10.0 0
40.57291664995752 10.0 0
40.07812498035642 10.0 0
39.5833333135598 10.0 0
39.08854164702338 9.999999999999998 0
38.59374997831855 10.0 0
38.09895831033653 9.999999999999998 0
37.60416664319297 9.999999999999998 0
37.10937497610721 10.0 0
36.61458330838541 10.0 0
36.1197916392469 10.0 0
35.62499996973254 10.0 0
35.13020830206855 10.0 0
34.63541663440456 10.0 0
34.14062496674057 10.0 0
33.64583329875855 10.0 0
33.15104162982244 10.0 0
32.65624996470271 10.0 0
32.16145829810846 10.0 0
31.66666663249723 10.0 0
31.17187496374905 10.0 0
30.67708329620071 10.0 0
30.18229162842107 10.0 0
29.68749996075709 10.0 0
29.19270829254376 9.999999999999998 0
28.69791662392567 10.0 0
28.20312495472935 10.0 0
27.7083332866606 10.0 0
27.21354161841836 9.999999999999998 0
26.71874994844141 10.0 0
26.22395828014135 10.0 0
[...]
CELL_DATA 4557
SCALARS flow double 1
LOOKUP_TABLE default
0.21239991670545744 0.2124306846577178 0.06268503663935945 0.06267896892621595 59.00878749697136 0.03734405018918798 0.035613906496078825 0.26916891373744395 0.2694277725920361 25.47580663241376 0.06958176569990049 0.06960970218569745 0.14427303354597987 8.79157116340255 8.790960670057286 4.453633651431733 4.455597492215383 2.5865185147039114 5.93881062103249 5.946076650330869 0.588918368163778 0.05517629633946517 0.05520458478870246 0.04610881465953565 0.0460778669708104 0.2358374000623107 0.2330842580815254 89.3004150717243 70.99969725376667 45.35746754425987 0.05003534520706096 0.0500246183524563 0.05879168887876163 0.05882282319773835 20.618265709359576 0.16314021128793557 0.07536653998573654 31.35392740752813 31.470803075757384 0.07540162421807382 44.41160185555528 16.987333302130764 25.598571654768474 35.62570343976013 35.66349168968263 27.938399239445914 2.9799521936420352 1.155644097074632 1.1563694750602982 0.08652151325858534 0.08725027482788046 0.6817361028732549 6.474580497471045 6.564059156768731 0.6817654181354661 0.6818316626532926 0.029086464175779377 0.029109783474166515 0.5747936978662104 19.2997025269462 19.29389467318189 0.0805003580072732 0.08054531901338732 18.736460193822715 40.59311226997929 0.016622842287605456 20.425737278614495 0.016522326061355442 0.08492702237403285 0.08496690007147922 0.021460544070235024 1.805835442293456 1.9774550981334413 1.9789150111385947 92.95223243750237 92.58298410616585 36.7824932515758 3.93365828290634 0.7021901586241375 0.021316686791104326 0.021292967851621516 44.34630916356944 1.5073690291094726 1.5061341068231928 2.71281145295016 22.805363053920242 0.07878531640781161 0.284125480431876 0.28433586144882284 3.4332160917993506 0.07882277586551784 0.39741505038471486 0.39723081351954387 0.8774041244341801 30.667052692465845 0.3819910257232756 0.3843004928593148 11.46345563015093 0.8766136931353607 11.532707259780844 6.746223359813577 6.742935206447828 7.569212481445006 93.3311843951983 2.2946046995285765 2.2849043489497816 1.0124720127788478 1.0138896391908976 71.68181121689537 0.08830711672845101 0.08826290533017667 70.56084484472751 7.043211007819435 6.986601360428617 10.085253441545909 10.085860570313065 5.331844289167596 5.3282045876782265 0.5933764251633685 0.5934985322059814 2.7442788084844896 1.4651873665089024 34.57035401845821 0.0742935644336578 0.07425944016471718 0.17124717195188197 0.17114103619314838 71.18956886959494 0.5108935266027358 0.5106406909813834 23.997916424030716 0.990335154235891 22.111176851478202 2.5862212740323645 3.851323678964136 27.1754059804102 43.804046243279636 1.2345362228298502 0.40860256844742937 6.908064710332069 6.916209269543072 32.16731969464774 1.948937833161418 37.31225185426818 32.80782161201451 17.237990816844132 17.23995409778903 24.256832563092004 0.3464955802482815 0.34633533884708234 24.800265676549724 5.8581389132212625 5.862750953773753 0.37113915161778116 0.3713044308165732 0.228582929652486 0.22854329651606187 24.668034079371914 0.1304588175073129 0.1298084673929506 0.12979487765982653 0.2431432341138537 0.2414542062724956 14.746676505656025 14.897571828316496 11.431809754664599 28.55074067834962 28.55704173971501 11.431818929212298 0.1455984605744066 0.7484428986601108 0.3067707570982467 0.30708803188680006 86.81968022647789 3.3884270357575765 0.3049412721713423 0.30468374009972493 0.10860069152759474 0.10857957621623301 8.180153772171595 7.842356477963857 0.29582889734801754 0.2961753470423121 26.119465435651108 18.638651224768815 18.62153269871471 1.1717051804716063 19.619860790947264 19.59096292283097 47.3613863365692 50.714491496557514 50.47938308292641 3.392584452108658 0.2663546278154973 0.2677971635539185 0.18853244832787583 0.18908704065240822 1.228686491803865 1.2279395252592349 3.372144274979121 0.268087320620518 1.1975313312596194 1.1972663948032034 72.35942971807263 0.6751568904968902 0.6755289570594017 7.859737346637223 20.472900793732297 20.315478656510688 0.22314309254352052 0.22586342291964787 46.2587519188824 25.718910754205492 3.672987799559812 0.057640031932265336 0.05761525375390322 0.24036572674294393 0.24273417350248822 23.49014340988499 54.54266508000488 54.49987277815393 3.074737183545855 0.17697218823361568 0.5466081144212425 0.5466399915563709 41.97107870528519 41.994653844395785 3.6498339434273315 0.2696845673220946 3.40366423708642 3.9454803183912186 45.24346044859923 21.629139354216637 6.654871680206545 6.607462434098089 21.035079118806202 2.5567032684819 9.952928865760288 9.968764332319845 18.6977724272178 18.65635404559844 22.186316502217448 0.2906203660611716 79.55314474012786 0.1766298512387705 46.25064428122894 0.269184355404636 0.27093287440427494 22.529735058409077 0.13736814234226857 7.850670043668421 0.11962439674311409 7.867501213477257 0.04864530869419447 0.04868849139372784 8.388115089781035 65.6586984603368 66.9715707618003 9.382575454939806 1.3125998481460912 1.3159957379129852 0.5222696203909245 0.5223980539086501 0.558846845487306 0.5591355820696084 28.14840881203174 3.650119384357123 1.2177742171156918 1.2089968830809013 8.30135798555143 0.1699776594051307 0.08377901473235033 0.08382078040445573 1.1829929714703862 1.1800565351842327 8.642598568852586 3.767093010881426 22.24265064322547 0.1680438433643251 0.12216805530572526 46.63331526774388 0.24722673552925525 0.24508022784847897 0.845199057869529 46.65168316562025 1.3154982859839774 1.3101000005741472 0.10648391394217836 0.877915020465992 3.8918885455746954 0.8453002245038927 8.776081036661665 28.01469563686188 0.6087739545915687 0.6075333164056569 0.5908926104698673 0.591752860718603 0.8766443701087809 0.20867183577889667 4.065362092569319 8.53969526520873 8.619356403877246 1.9342146055291767 1.9339487169972847 2.8516666933567114 0.09830160842151484 8.51362098017875 0.8682042420744408 20.46992957678017 0.10279686452832092 0.1019040068060793 0.44600147587277783 0.4462285980243585 29.111229600020017 28.90114957825751 0.6316993587805886 0.6347896620206591 89.45745106209655 0.1519987714773711 2.6544921060759736 2.6472763392615843 4.1162236209306355 0.10062886459283658 36.82559530326036 0.19291623361578272 0.09740937639969932 37.325103641461155 0.09516568233032813 40.50483579876244 4.920488630126744 5.050357365132708 47.750206871083606 0.14956898394816287 11.744019575384295 90.37032160290934 39.845262031118146 1.3116442590980284 0.4975803698978396 0.49722437089222987 0.07876391013483987 90.57873356595428 7.868165171350269 20.435255691963615 20.60434543146677 3.301959788940848 0.09627321235180085 0.6696486063553178 41.20893872000998 41.38683954802451 10.65110549317018 0.45183945712522194 0.46781831414613745 1.0628928097804322 0.13681350213341956 45.83394987947603 0.4679928062432237 0.28676298573821946 0.28663461744445706 0.13845172336649336 12.742355045233138 12.740280510165775 0.6636937910115269 12.419130747336409 0.46745726817322153 0.12407468526173213 0.14573164140699324 0.4083210918342806 0.4085179791500607 3.7557100385346955 0.18568099748016798 0.3143425858673985 0.31178529221997947 0.28457022807641735 0.28468268854546674 0.18991965680774242 1.6939488006283743 0.159056651318263 0.07705981440733277 0.18944151771779666 0.15562214787491035 0.12373238849718549 42.38946835697864 7.435386831919368 7.435495353146995 1.791617542016828 1.2472472525784228 1.2461045357184108 24.24395775626251 4.261559366318745 24.078460395728445 0.7405967312342209 0.11195313007569341 25.736939405018518 10.5858544535399 4.710616308724677 0.12924867863783288 21.646829014383606 1.790198929028013 0.8441756412169789 25.45256385078625 2.7770266375519834 2.823795797674457 0.09834567536001046 0.20633540221772514 0.06726672005748967 2.02552025620671 2.0208707245466 1.3558411457782604 26.194423210487646 75.03361317770104 0.12393430858723142 2.4769916105586636 2.4775547889754423 0.13219135299152815 4.434823401260705 0.07752746687432174 0.129733087263376 5.377016227352357 5.413157291315392 4.076216547808669 11.757642152839743 0.2246496989573916 0.22538600907447295 38.87768061482411 0.1820465640124869 2.2770385794594112 0.8024591999436672 2.1178841180648518 4.171948657326172 0.09332425783235605 66.26307252684715 0.021606999024439067 0.09234071436850853 0.18194276407626778 1.9050627563537776 4.592012433147536 4.638216423375354 11.360197638910627 1.4596049782423233 17.13209329514426 0.11676307100662317 83.12903188219757 22.46027661089267 1.8642861905535248 1.8370994637724944 0.14245601664374924 10.107916525933621 0.1928722195586308 12.435978503866835 18.658730369901594 0.14274583305462232 0.17254579890585758 24.978817135335454 9.978817707461383 7.7862967948901645 43.59691539106726 24.69702933373016 2.3963829728317783 2.416888646349219 43.194777915369485 27.957275659235886 0.5042283787544997 0.11563966498610626 2.1021384445915405 2.122339772067297 0.08832312360851771 0.8021572361972085 46.46692877984767 0.3539638962542069 0.4798584691729275 0.4801028208828818 0.8001679552406866 1.1687645413276477 53.050252132756086 13.10300168256056 13.096985225474516 2.3957449642173656 1.0598105733430003 1.0565426811695673 3.7323155543833075 3.605475817596023 0.35598876067018365 15.989607733985185 11.486246992541066 11.48632452571837 35.190383002595674 0.10439065358582941 5.797456333094051 5.739406719337306 28.17657644610233 11.080478958637629 5.086904629185115 5.109211720361387 0.08954700183638795 23.102678445460917 3.506252198359561 0.09760628633454113 0.1645399036038882 9.580353759007183 3.733316747809169 4.35663813679931 0.5052386597508757 16.711839824355827 16.678801321093037 41.77870191327406 0.472805249068114 0.47062602801580355 5.895254436353279 0.07409344268176492 0.1006886194407593 0.17709748840682685 0.9300638259655314 0.9328622978839222 0.13076295981282324 29.558236599825065 66.66632309702688 67.34312427036915 0.14120983721894884 0.07461583901545388 15.59621659043583 3.8425403464339305 0.07681810878932835 0.11477167685994501 18.102928493116554 18.110981370116185 9.275227725970735 0.10046136999487082 43.33246027837943 1.7194352738012948 1.7042681624308536 6.141188838960309 6.171464925874822 0.09954256169604185 29.84074067751852 13.409412240402547 13.406521733144956 0.09840236063331613 0.09655408709406656 1.2345011048315329 1.253756000770912 1.2535066388663922 5.90533961499602 43.15258555898006 26.137644756700535 26.076409292475244 81.90396741856895 80.02955533247292 0.18927362343464163 0.08855933986438681 40.698508670597406 0.35654104238161005 48.202454744497985 48.08601916465042 0.1865765370536528 0.18618432508505545 24.904890009548364 31.53059353378254 30.703577617780688 10.458666611034065 0.0757018349175489 0.07573707735844581 0.13853409723692736 34.5231482411298 0.6429518345258805 0.6430525088136327 1.6046991312903982 1.6049973639550994 0.3129972912746 0.09403234513139667 35.572749408835115 0.15102702813786284 0.09840896685078467 1.6131539070652023 34.69874984624789 11.902990367760712 0.15691153697270604 0.5628921248969376 2.9062427167354037 0.1553896265199159 0.10941011839670473 0.23531269227214102 0.23503056915091883 44.33225249961286 44.892946296162656 0.1725973384379951 9.590098235601607 0.1661617241111124 9.376297835498251 18.81006126039237 0.09108677710275287 0.08861659984854887 0.08654034021391463 2.7187036328220042 2.7668818086801 2.200795294239173 2.187531521010111 4.0528092301454 0.13667111897332118 4.223703884738907 34.40690471267295 34.93559445675172 0.09000888345833234 0.09073275029763696 0.08723819060831561 0.08751607802546849 0.09368286091015872 15.632907233784596 1.2527985558577122 1.8570929870919077 1.894989032892326 0.2622703807977675 1.9778698375617458 1.9607290369715127 0.2621917760867768 0.6807400384543957 0.10155977712762237 2.124441141140387 0.2471638580743876 0.24559713075902737 33.72479564953744 3.8481789670970645 0.09747999624084983 0.09831783768936499 0.08459186236124959 0.08472264150822606 0.383895054137172 0.3839212803484451 0.09217555423969802 30.722525583278816 30.350744599161278 3.9809824526095468 0.08840135749224501 31.790055703668806 31.094334628649587 59.00326263817134 59.5083837003842 9.890131007268332 4.143505423157897 14.88014430862999 0.9904404072400093 0.9960137041223138 0.10894821400276647 1.562730241829936 3.071030156484651 0.10474339470241756 0.0768542076637715 2.84384359616162 0.10421723321367451 0.10334374020917063 33.33935834652651 31.86796272145074 3.7694079432008727 39.21088687474845 1.730442819882468 1.7465777178641417 1.6311808579592815 1.6161343039600609 27.992618797577062 27.797835924063353 3.028533779639295 31.16342371006923 31.43497501946952 34.0676769419084 24.35772780097059 10.957569278523211 10.959277345466226 18.748548278298415 2.435210976344063 56.78794246883766 7.666747263875182 0.09119369687476261 1.693062176227587 0.09004842666410309 17.556992872702885 17.62746178918689 1.7617364585552275 1.7351666077023171 0.3445599714542542 0.8526931284624997 15.206219971078374 15.205104689127277 0.3792467247817755 0.3845063612693989 1.59383521400103 15.253105087829091 15.253813593460649 11.660757337446821 12.455197763451984 12.452812512026574 0.16653315306949812 13.87512886735528 13.69685137290945 10.643061973366944 17.762697971217197 0.23507739562551366 21.552245862733702 13.835145214932446 13.844058963612776 6.0134326081121365 5.928025111699227 5.25249687320901 5.253456670972702 0.22352560359259746 77.57050152781963 0.1122949537538668 2.0849168579513053 2.2121405379485575 0.9175498215813561 0.91315636592505 2.5740202377873116 0.4130335495534315 0.4132977005249079 0.43891576522343634 0.4391781548728254 4.696311786007622 0.4061778924563255 0.4063455314280799 0.111959661281469 1.0742030967988965 1.0746592922098723 5.139824797271741 3.07507344101559 1.92704221406458 1.9324132921385881 0.8939588662281367 0.8825026448738593 6.150669974715131 0.3091315184002731 0.3093743333110971 0.403290343692666 0.40206369312438167 26.84322918126191 3.913187275243699 4.634344624535245 1.8698811623873586 2.598493648827732 2.627661590292238 3.023338883182107 3.111877550176538 1.5128575889064275 1.5088603258629318 2.073215024440779 2.0879058490413214 2.4921510151740103 0.715554161391764 0.716133116636389 0.5926360088383071 0.5929633787394167 13.642401723395649 2.118824398241297 12.74739540151988 12.743825300412109 2.9615982801651546 23.255594737599353 54.40161950333978 1.1129838181024836 1.1143129161266503 1.4670386201102543 32.76501523247306 33.25977220027343 42.024170449141984 40.6072524246593 0.22196993054151293 8.997869436228859 8.803759843862034 0.09872706322764854 0.09880620969382223 81.0764589875802 9.945227717919682 9.919559689027949 5.235900524043641 0.16894578723363607 2.112474043515426 1.9014989681307675 2.0166040144250474 1.1495679337484774 1.1491946163092501 10.79002356614266 3.759725453261311 4.029429880454811 6.220274038916004 2.598025845967691 2.445824936410886 1.0740013581756078 1.0739526429093749 6.415589370904731 4.616827520421354 0.4577632949131716 0.4580025937858745 0.5449438874667579 0.5452026151745919 1.775150869503062 12.836133253159618 0.7892995270077353 0.3572896693361463 0.3572793401095031 0.5647670746922191 0.5637718574479923 0.3088368829278352 0.30892446139081736 46.2621852363921 0.8968991964663074 0.8934930640629865 2.02200751486196 0.4030832924609579 0.39753341923774754 17.11876565599209 0.16320256870707525 4.184156282323836 25.243787608276865 0.21482226085628922 0.2158020820626978 22.133461943447507 0.08729750638303346 37.10534652432552 0.22360336140243484 1.7192983883628516 0.22362481058387648 20.825065789464453 20.726283124497115 0.13391382504786958 0.13387132215581993 20.887764631314834 18.838833159642018 18.2029260223195 41.23107838443243 0.2336951394441828 0.2337883094040503 12.176844193195118 2.7679209378902274 1.2821446815918445 11.555326863972384 0.09390969581762494 38.35741497885531 8.21999596007462 8.190443617627952 0.15358289627108387 16.779628857154975 16.57576210093471 15.951880360946332 14.80897026476369 0.19030569473764025 0.10924534312700108 3.254257876283662 0.09593133759424147 13.956753132371412 13.889851486940206 0.20630102978989834 11.691552622320247 11.688732728138367 13.199279395774283 3.2028284740905217 10.71726916569651 10.72196726041601 0.2456691142895046 0.803604979476068 0.22632586909915478 31.01656895960415 22.028973505332587 0.2263272721826781 0.6116550801786573 0.5891314927519907 9.31151039412579 9.300881846757262 15.229446661740337 15.226377052414536 19.086308087479825 19.474647386928687 0.2088822483499166 14.10063905010233 14.091110023989263 1.3530093122218885 1.468654000566709 2.9837297408858903 2.9551908049813025 0.2089078744823844 5.640720618311164 5.642743804024258 0.14778534271799837 0.2423440959842848 0.5420234868910496 0.5416861524241732 0.6873292222228581 1.1235947408837799 1.1210216677673646 1.6174386893667625 1.3641498064927304 18.733178170901084 18.6672868032439 0.10186462874589114 0.09980031713009437 6.364257833132937 25.55958192347873 1.3768109731962448 1.3431932668037356 0.25425779717890234 5.092683221762437 0.21789572742377972 0.149857223091961 4.782489325249203 4.844142830863604 4.310252875442146 1.529919865817411 0.2524374445291171 6.149906255095753 31.540259494233275 0.2689911236118615 1.8447159261409563 0.8117086719168645 0.2473983556617078 1.523043443269168 1.5070387955317235 0.710150316140027 0.7116489601095356 1.2537493605251029 1.2736239304661026 0.8573905891004935 0.17536361035407166 6.934492708002141 6.93698172480536 6.908963828335358 6.8607121304560925 3.0682412630098694 2.8449196921374313 2.83774056992842 3.4901794579716956 2.657970884832713 2.5881025276816905 2.0657320091974896 2.054622224834264 0.2138407598295134 3.5300656990282024 12.611172955705074 0.1463189164238664 0.14626859771144604 29.124967897065943 0.11050052796705864 0.11055889897927794 71.17844042426486 0.12369669129348189 0.12365606097337763 55.907732288945695 0.1184140875359223 30.7207443461633 27.974546878464487 14.092436121573437 4.507582524868407 0.09027517180280356 0.11531478997902414 0.11800792768094735 28.859723562421838 28.60610238325662 17.478810799834555 16.993334367603914 2.403597810665002 2.4528573853377442 62.81833699825286 3.120895027122373 3.097108071616212 0.5672388588039559 19.707720276174346 0.1335507623769847 18.019167773498705 1.3228498438805962 0.30475167794529084 0.30323501431064487 0.08179342758036892 2.1016122796887386 11.260196946116674 101.75359833451755 1.716075761770048 27.587201585111142 11.944733726177251 3.663919839328247 3.8711464104969244 6.488783985223467 0.3094287987782155 0.1476806959263672 16.017290670507574 30.020347881368135 29.98520762365518 0.12474626500306615 0.20244424225086302 0.19875727934351575 0.29635834095146685 0.057342869516049555 0.05793412399377645 1.5172111411961726 4.196606233279783 4.223623291805888 25.41851997204463 10.544772609541402 2.2440714853936474 2.235158752620596 0.23279691127706353 0.5050153781641673 0.5048761279877424 0.8577248134944575 0.7522414609843162 0.25071660741377816 0.5655923539985781 0.12166664393588895 0.12161971934270373 2.7215002358946188 2.092379476803352 2.3545404233173532 74.61186503475629 14.8562685963809 14.859658062362753 1.691507645829477 1.6963129142788105 0.3352210372613753 0.3189269517887389 0.1135169009524738 1.0711973867260502 1.0615786651901113 0.3862345504091464 0.3686356804508048 9.31053006321092 9.43670137579374 2.314710919010464 2.3109393519407804 4.995193022624412 4.982916627737889 0.24150193248056342 0.6329851327891798 46.38648807447822 0.2578997003507464 28.287340863176063 26.20072940649178 0.2593614378575162 0.1393920365672256 2.2001439867959984 2.3526096924038806 0.13138845014531017 37.15190445857791 22.25472776944866 0.7995762727010881 8.811770464131047 7.510486458714959 7.519453862455477 0.13839827580312686 23.65875094789353 0.1640894803036763 0.9902669554363692 0.9985709886397178 0.4303456723873812 0.422319076484431 0.2108940630087558 33.650046998606655 6.6587606815007945 6.399565834555624 0.8012244221594332 1.6534221091144876 0.2777216906439408 0.08027982390106385 0.2794173653056602 24.138949543951142 23.221525603